
  ___ ___ ___ _ _ _  
 |   |   |_  | | | | 
 | | | | | . | | | | 
 |__ |  _|___|_____|  22.8.0
 |___|_|             

User:   vazumah@c11.hercules
Date:   Tue Feb 14 09:52:37 2023
Arch:   x86_64
Pid:    28426
CWD:    /home/vazumah/Python_projects/LiNRR/autocad_start/slab_experiments/free_slabs/Ba/bcc111/substrate
Python: 3.10.8
gpaw:   /home/vazumah/.conda/envs/GPAW/lib/python3.10/site-packages/gpaw
_gpaw:  /home/vazumah/.conda/envs/GPAW/lib/python3.10/site-packages/
        _gpaw.cpython-310-x86_64-linux-gnu.so
ase:    /home/vazumah/.conda/envs/GPAW/lib/python3.10/site-packages/ase (version 3.22.1)
numpy:  /home/vazumah/.conda/envs/GPAW/lib/python3.10/site-packages/numpy (version 1.24.1)
scipy:  /home/vazumah/.conda/envs/GPAW/lib/python3.10/site-packages/scipy (version 1.10.0)
libxc:  5.2.3
units:  Angstrom and eV
cores: 24
OpenMP: True
OMP_NUM_THREADS: 1

Reading from output.gpw
Reading input parameters:
  eigensolver: {name: dav,
                niter: 3}
  h: 0.16
  kpts: {size: [2, 2, 1]}
  maxiter: 999
  mixer: {backend: pulay,
          beta: 0.02,
          method: separate,
          nmaxold: 5,
          weight: 100}
  occupations: {name: fermi-dirac,
                width: 0.1}
  poissonsolver: {dipolelayer: xy}
  xc: BEEF-vdW

Initialize ...

species:
  Ba:
    name: Barium
    id: 3c0c69fceb001740075f2c7491402c79
    Z: 56.0
    valence: 10
    core: 46
    charge: 0.0
    file: /home/vazumah/.conda/envs/GPAW/share/gpaw/Ba.PBE.gz
    compensation charges: {type: gauss,
                           rc: 0.37,
                           lmax: 2}
    cutoffs: {filter: 2.06,
              core: 2.33}
    valence states:
      #              energy  rcut
      - 5s(2.00)   -33.644   1.164
      - 6s(2.00)    -3.229   1.164
      - 5p(6.00)   -18.744   1.164
      -  p           0.000   1.164
      -  d           0.000   1.164
      -  d          27.211   1.164
  
    # Using partial waves for Ba as LCAO basis

Reference energy: -7966002.330397  # eV

Spin-paired calculation

Convergence criteria:
 Maximum [total energy] change in last 3 cyles: 0.0005 eV / electron
 Maximum integral of absolute [dens]ity change: 0.0001 electrons / valence electron
 Maximum integral of absolute [eigenst]ate change: 4e-08 eV^2 / valence electron
 Maximum number of scf [iter]ations: 999
 (Square brackets indicate name in SCF output, whereas a 'c' in
 the SCF output indicates the quantity has converged.)

Symmetries present (total): 12

  ( 1  0  0)  ( 1  0  0)  ( 1 -1  0)  ( 1 -1  0)  ( 0  1  0)  ( 0  1  0)
  ( 1 -1  0)  ( 0  1  0)  ( 1  0  0)  ( 0 -1  0)  ( 1  0  0)  (-1  1  0)
  ( 0  0 -1)  ( 0  0  1)  ( 0  0 -1)  ( 0  0  1)  ( 0  0  1)  ( 0  0 -1)

  ( 0 -1  0)  ( 0 -1  0)  (-1  1  0)  (-1  1  0)  (-1  0  0)  (-1  0  0)
  ( 1 -1  0)  (-1  0  0)  ( 0  1  0)  (-1  0  0)  ( 0 -1  0)  (-1  1  0)
  ( 0  0  1)  ( 0  0 -1)  ( 0  0 -1)  ( 0  0  1)  ( 0  0 -1)  ( 0  0  1)
Note: your k-points are not as symmetric as your crystal!

4 k-points: 2 x 2 x 1 Monkhorst-Pack grid
2 k-points in the irreducible part of the Brillouin zone
       k-points in crystal coordinates                weights
   0:     0.25000000   -0.25000000    0.00000000          2/4
   1:     0.25000000    0.25000000    0.00000000          2/4

Wave functions: Uniform real-space grid
  Kinetic energy operator: 8*3+1=25 point O(h^6) finite-difference Laplacian
  ScaLapack parameters: grid=1x1, blocksize=None
  Wavefunction extrapolation:
    Improved wavefunction reuse through dual PAW basis 

Occupation numbers: Fermi-Dirac:
  width: 0.1000  # eV
 

Eigensolver
   Davidson(niter=3) 

Densities:
  Coarse grid: 116*116*152 grid
  Fine grid: 232*232*304 grid
  Total Charge: 0.000000 

Density mixing:
  Method: separate
  Backend: pulay
  Linear mixing parameter: 0.02
  old densities: 5
  Damping of long wavelength oscillations: 100 

Hamiltonian:
  XC and Coulomb potentials evaluated on a 232*232*304 grid
  Using the BEEF-vdW Exchange-Correlation functional
  Interpolation: tri-quintic (5. degree polynomial)
  Poisson solver: FastPoissonSolver using
    Stencil: 8*3+1=25 point O(h^6) finite-difference Laplacian
    FFT axes: [0, 1]
    FST axes: [2]

Dipole correction along z-axis 

XC parameters: BEEF-vdW with 2 nearest neighbor stencil

Memory estimate:
  Process memory now: 213.27 MiB
  Calculator: 1033.93 MiB
    Density: 65.40 MiB
      Arrays: 33.67 MiB
      Localized functions: 18.89 MiB
      Mixer: 12.83 MiB
    Hamiltonian: 23.45 MiB
      Arrays: 22.02 MiB
      XC: 0.00 MiB
      Poisson: 0.00 MiB
      vbar: 1.43 MiB
    Wavefunctions: 945.09 MiB
      Arrays psit_nG: 461.98 MiB
      Eigensolver: 479.76 MiB
      Projections: 0.15 MiB
      Projectors: 3.21 MiB

Total number of cores used: 24
Parallelization over k-points: 2
Domain decomposition: 2 x 2 x 3

Number of atoms: 36
Number of atomic orbitals: 180
Number of bands in calculation: 180
Number of valence electrons: 360
Bands to converge: occupied

... initialized

Initializing position-dependent things.

Creating initial wave functions:
  180 bands from LCAO basis set

                                                                                        
                                                                                        
                                                                                        
                                                                                        
                                                                                        
                                   Ba                Ba               Ba                
                                 Ba               Ba               Ba                   
                                                                                        
                                           Ba               Ba               Ba         
                      Ba                Ba               Ba                             
                    Ba               Ba                Ba                               
                                 Ba               Ba               Ba                   
                              Ba               Ba                Ba                     
          Ba               Ba                Ba                                         
       Ba                Ba               Ba                                            
                    Ba               Ba                Ba                               
                 Ba                Ba               Ba                                  
                                                                                        
                                                                                        
       Ba                Ba               Ba                                            
                                                                                        
                                                                                        
                                                                                        
                                                                                        

Positions:
   0 Ba     0.000000    0.000000   10.000000    ( 0.0000,  0.0000,  0.0000)
   1 Ba     7.099352    0.000000   10.000000    ( 0.0000,  0.0000,  0.0000)
   2 Ba    14.198704    0.000000   10.000000    ( 0.0000,  0.0000,  0.0000)
   3 Ba     3.549676    6.148219   10.000000    ( 0.0000,  0.0000,  0.0000)
   4 Ba    10.649028    6.148219   10.000000    ( 0.0000,  0.0000,  0.0000)
   5 Ba    17.748380    6.148219   10.000000    ( 0.0000,  0.0000,  0.0000)
   6 Ba     7.099352   12.296439   10.000000    ( 0.0000,  0.0000,  0.0000)
   7 Ba    14.198704   12.296439   10.000000    ( 0.0000,  0.0000,  0.0000)
   8 Ba    21.298056   12.296439   10.000000    ( 0.0000,  0.0000,  0.0000)
   9 Ba     3.549676    2.049406   11.449149    ( 0.0000,  0.0000,  0.0000)
  10 Ba    10.649028    2.049406   11.449149    ( 0.0000,  0.0000,  0.0000)
  11 Ba    17.748380    2.049406   11.449149    ( 0.0000,  0.0000,  0.0000)
  12 Ba     7.099352    8.197626   11.449149    ( 0.0000,  0.0000,  0.0000)
  13 Ba    14.198704    8.197626   11.449149    ( 0.0000,  0.0000,  0.0000)
  14 Ba    21.298056    8.197626   11.449149    ( 0.0000,  0.0000,  0.0000)
  15 Ba    10.649028   14.345845   11.449149    ( 0.0000,  0.0000,  0.0000)
  16 Ba    17.748380   14.345845   11.449149    ( 0.0000,  0.0000,  0.0000)
  17 Ba    24.847732   14.345845   11.449149    ( 0.0000,  0.0000,  0.0000)
  18 Ba     0.000000    4.098813   12.898298    ( 0.0000,  0.0000,  0.0000)
  19 Ba     7.099352    4.098813   12.898298    ( 0.0000,  0.0000,  0.0000)
  20 Ba    14.198704    4.098813   12.898298    ( 0.0000,  0.0000,  0.0000)
  21 Ba     3.549676   10.247032   12.898298    ( 0.0000,  0.0000,  0.0000)
  22 Ba    10.649028   10.247032   12.898298    ( 0.0000,  0.0000,  0.0000)
  23 Ba    17.748380   10.247032   12.898298    ( 0.0000,  0.0000,  0.0000)
  24 Ba     7.099352   16.395251   12.898298    ( 0.0000,  0.0000,  0.0000)
  25 Ba    14.198704   16.395251   12.898298    ( 0.0000,  0.0000,  0.0000)
  26 Ba    21.298056   16.395251   12.898298    ( 0.0000,  0.0000,  0.0000)
  27 Ba     0.000000    0.000000   14.347448    ( 0.0000,  0.0000,  0.0000)
  28 Ba     7.099352    0.000000   14.347448    ( 0.0000,  0.0000,  0.0000)
  29 Ba    14.198704    0.000000   14.347448    ( 0.0000,  0.0000,  0.0000)
  30 Ba     3.549676    6.148219   14.347448    ( 0.0000,  0.0000,  0.0000)
  31 Ba    10.649028    6.148219   14.347448    ( 0.0000,  0.0000,  0.0000)
  32 Ba    17.748380    6.148219   14.347448    ( 0.0000,  0.0000,  0.0000)
  33 Ba     7.099352   12.296439   14.347448    ( 0.0000,  0.0000,  0.0000)
  34 Ba    14.198704   12.296439   14.347448    ( 0.0000,  0.0000,  0.0000)
  35 Ba    21.298056   12.296439   14.347448    ( 0.0000,  0.0000,  0.0000)

Unit cell:
           periodic     x           y           z      points  spacing
  1. axis:    yes   21.298056    0.000000    0.000000   116     0.1590
  2. axis:    yes   10.649028   18.444658    0.000000   116     0.1590
  3. axis:    no     0.000000    0.000000   24.347448   152     0.1602

  Lengths:  21.298056  21.298056  24.347448
  Angles:   90.000000  90.000000  60.000000

Effective grid spacing dv^(1/3) = 0.1672

     iter     time        total  log10-change:
                         energy  eigst   dens
iter:   1 10:10:44 -6757.818033  +0.75
iter:   2 10:26:57 -6769.176428  +0.71  -1.25
iter:   3 10:43:32 -6776.396904  +0.28  -1.32
iter:   4 10:59:33 -6780.403053  +0.24  -1.49
Writing to output.gpw (mode='')

iter:   5 11:16:05 -6783.162265  -0.10  -1.73
iter:   6 11:32:24 -6784.405042  -0.16  -1.82
iter:   7 11:48:55 -6785.234693  -0.63  -1.92
iter:   8 12:05:21 -6786.040945  -0.59  -1.97
iter:   9 12:21:18 -6786.985799  -0.70  -2.01
Writing to output.gpw (mode='')

iter:  10 12:37:49 -6786.672911  -0.80  -1.75
iter:  11 12:54:34 -6786.680122  -1.17  -1.92
iter:  12 13:11:10 -6786.850285c -1.04  -2.28
iter:  13 13:27:15 -6787.001821  -1.36  -2.34
iter:  14 13:43:40 -6787.142818  -1.33  -2.32
Writing to output.gpw (mode='')

iter:  15 14:00:22 -6787.218535  -1.48  -2.34
iter:  16 14:16:39 -6787.287281c -1.54  -2.26
iter:  17 14:33:05 -6787.366299c -1.62  -2.24
iter:  18 14:49:37 -6787.412656c -1.75  -2.15
iter:  19 15:05:50 -6787.571499  -1.63  -2.11
Writing to output.gpw (mode='')

iter:  20 15:22:21 -6787.478915c -1.69  -2.00
iter:  21 15:38:46 -6787.510825c -1.62  -2.18
iter:  22 15:55:17 -6787.556290c -1.67  -2.46
iter:  23 16:12:05 -6787.785736  -1.63  -2.34
iter:  24 16:28:25 -6787.708165  -1.62  -2.14
Writing to output.gpw (mode='')

iter:  25 16:45:01 -6787.747663c -1.86  -2.27
iter:  26 17:01:13 -6787.751607c -1.71  -2.25
iter:  27 17:17:35 -6787.782165c -1.80  -2.40
iter:  28 17:34:07 -6787.820765c -1.77  -2.45
iter:  29 17:50:33 -6787.891708c -1.80  -2.46
Writing to output.gpw (mode='')

iter:  30 18:06:59 -6787.956476c -1.81  -2.48
iter:  31 18:23:23 -6787.981687c -1.83  -2.36
iter:  32 18:39:42 -6787.978177c -1.86  -2.34
iter:  33 18:56:13 -6788.032478c -2.03  -2.42
iter:  34 19:12:30 -6788.069297c -1.81  -2.37
Writing to output.gpw (mode='')

iter:  35 19:29:12 -6788.075478c -2.02  -2.34
iter:  36 19:45:36 -6788.104478c -1.80  -2.36
iter:  37 20:01:54 -6788.144228c -2.02  -2.46
iter:  38 20:18:11 -6788.207204c -1.90  -2.52
iter:  39 20:34:34 -6788.227897c -1.97  -2.40
Writing to output.gpw (mode='')

iter:  40 20:51:21 -6788.226725c -2.04  -2.42
iter:  41 21:07:56 -6788.249124c -2.26  -2.48
iter:  42 21:24:37 -6788.267089c -2.02  -2.47
iter:  43 21:41:01 -6788.289684c -2.22  -2.47
iter:  44 21:57:42 -6788.305888c -2.26  -2.46
Writing to output.gpw (mode='')

iter:  45 22:14:13 -6788.317421c -2.33  -2.49
iter:  46 22:30:49 -6788.344668c -2.24  -2.49
iter:  47 22:46:58 -6788.345986c -2.30  -2.41
iter:  48 23:03:06 -6788.348252c -2.27  -2.49
iter:  49 23:19:17 -6788.381269c -2.32  -2.54
Writing to output.gpw (mode='')

iter:  50 23:35:20 -6788.396486c -2.14  -2.45
iter:  51 23:52:02 -6788.395219c -2.31  -2.51
iter:  52 00:08:21 -6788.437514c -2.32  -2.49
iter:  53 00:25:01 -6788.440629c -2.25  -2.35
iter:  54 00:41:27 -6788.436717c -2.31  -2.33
Writing to output.gpw (mode='')

iter:  55 00:57:56 -6788.429985c -2.32  -2.36
iter:  56 01:14:53 -6788.431532c -2.34  -2.46
iter:  57 01:31:30 -6788.444107c -2.22  -2.63
iter:  58 01:48:15 -6788.480416c -2.28  -2.65
iter:  59 02:04:50 -6788.494290c -2.21  -2.48
Writing to output.gpw (mode='')

iter:  60 02:21:06 -6788.514479c -2.34  -2.44
iter:  61 02:37:34 -6788.519190c -2.24  -2.40
iter:  62 02:53:40 -6788.492583c -2.29  -2.39
iter:  63 03:09:51 -6788.514970c -2.26  -2.57
iter:  64 03:26:13 -6788.528141c -2.33  -2.50
Writing to output.gpw (mode='')

iter:  65 03:42:34 -6788.539338c -2.19  -2.64
iter:  66 03:59:02 -6788.546419c -2.39  -2.66
iter:  67 04:15:23 -6788.557600c -2.40  -2.67
iter:  68 04:31:50 -6788.565910c -2.30  -2.65
iter:  69 04:48:12 -6788.574944c -2.45  -2.63
Writing to output.gpw (mode='')

iter:  70 05:04:20 -6788.584335c -2.32  -2.63
iter:  71 05:20:19 -6788.593708c -2.45  -2.63
iter:  72 05:36:29 -6788.618064c -2.34  -2.66
iter:  73 05:52:52 -6788.627461c -2.27  -2.59
iter:  74 06:09:09 -6788.638812c -2.23  -2.57
Writing to output.gpw (mode='')

iter:  75 06:25:14 -6788.672019c -2.31  -2.56
iter:  76 06:41:33 -6788.679924c -2.29  -2.61
iter:  77 06:57:46 -6788.763258c -2.16  -2.60
iter:  78 07:13:47 -6788.743053c -2.25  -2.33
iter:  79 07:29:56 -6788.740194c -2.37  -2.35
Writing to output.gpw (mode='')

iter:  80 07:45:58 -6788.716289c -2.41  -2.36
iter:  81 08:01:54 -6788.739077c -2.42  -2.42
iter:  82 08:17:52 -6788.738006c -2.23  -2.41
iter:  83 08:34:30 -6788.773592c -2.24  -2.59
iter:  84 08:51:11 -6788.786864c -2.30  -2.62
Writing to output.gpw (mode='')

iter:  85 09:07:24 -6788.769596c -2.57  -2.57
iter:  86 09:23:30 -6788.784842c -2.57  -2.65
iter:  87 09:39:20 -6788.797235c -2.52  -2.63
iter:  88 09:55:30 -6788.790917c -2.59  -2.60
iter:  89 10:11:39 -6788.798514c -2.28  -2.76
Writing to output.gpw (mode='')

iter:  90 10:27:31 -6788.812063c -2.69  -2.86
iter:  91 10:43:44 -6788.814741c -2.76  -2.93
iter:  92 11:00:00 -6788.822747c -2.45  -3.09
iter:  93 11:16:14 -6788.828866c -2.61  -3.15
iter:  94 11:32:36 -6788.834411c -2.61  -3.07
Writing to output.gpw (mode='')

iter:  95 11:49:08 -6788.837846c -2.71  -3.00
iter:  96 12:04:59 -6788.841205c -2.77  -2.98
iter:  97 12:21:08 -6788.846373c -2.81  -2.95
iter:  98 12:37:48 -6788.850281c -2.73  -2.90
iter:  99 12:54:06 -6788.885255c -2.53  -2.86
Writing to output.gpw (mode='')

iter: 100 13:10:24 -6788.869626c -2.78  -2.55
iter: 101 13:26:36 -6788.893060c -2.88  -2.60
iter: 102 13:43:08 -6788.880949c -2.78  -2.51
iter: 103 13:59:38 -6788.899892c -2.92  -2.53
iter: 104 14:16:24 -6788.880546c -2.68  -2.48
Writing to output.gpw (mode='')

iter: 105 14:32:55 -6788.869776c -2.65  -2.55
iter: 106 14:49:26 -6788.877323c -2.31  -2.80
iter: 107 15:05:43 -6788.886093c -2.75  -2.91
iter: 108 15:22:26 -6788.888904c -2.95  -2.95
iter: 109 15:39:02 -6788.895407c -2.85  -2.97
Writing to output.gpw (mode='')

iter: 110 15:55:24 -6788.898946c -2.92  -3.05
iter: 111 16:11:44 -6788.901368c -2.89  -3.18
iter: 112 16:28:03 -6788.904982c -3.07  -3.21
iter: 113 16:44:33 -6788.910522c -2.90  -3.21
iter: 114 17:01:03 -6788.913158c -3.07  -3.21
Writing to output.gpw (mode='')

iter: 115 17:17:16 -6788.919290c -2.84  -3.20
iter: 116 17:33:19 -6788.922815c -2.92  -3.14
iter: 117 17:49:50 -6788.924921c -3.11  -3.11
iter: 118 18:06:10 -6788.932836c -2.92  -3.12
iter: 119 18:22:37 -6788.935366c -3.04  -2.99
Writing to output.gpw (mode='')

iter: 120 18:38:54 -6788.937449c -3.03  -2.98
iter: 121 18:55:04 -6788.940843c -3.10  -2.96
iter: 122 19:11:23 -6788.940008c -3.07  -2.94
iter: 123 19:27:36 -6788.942710c -2.91  -3.06
iter: 124 19:43:34 -6788.945964c -3.04  -3.05
Writing to output.gpw (mode='')

iter: 125 19:59:40 -6788.948855c -2.86  -3.05
iter: 126 20:15:23 -6788.951014c -3.06  -3.06
iter: 127 20:31:26 -6788.952575c -3.16  -3.12
iter: 128 20:47:39 -6788.955078c -3.17  -3.11
iter: 129 21:03:47 -6788.956840c -3.13  -3.06
Writing to output.gpw (mode='')

iter: 130 21:20:49 -6788.961740c -3.22  -3.09
iter: 131 21:36:58 -6788.963153c -3.22  -3.00
iter: 132 21:53:23 -6788.964842c -3.07  -3.01
iter: 133 22:09:38 -6788.968023c -3.23  -3.05
iter: 134 22:25:52 -6788.969850c -3.26  -3.03
Writing to output.gpw (mode='')

iter: 135 22:42:32 -6788.986639c -2.78  -2.99
iter: 136 22:58:36 -6788.975693c -3.02  -2.73
iter: 137 23:14:42 -6788.979368c -3.20  -2.81
iter: 138 23:30:59 -6788.981501c -3.26  -2.80
iter: 139 23:47:20 -6788.981547c -3.40  -2.82
Writing to output.gpw (mode='')

iter: 140 00:03:54 -6788.984554c -2.96  -2.80
iter: 141 00:20:10 -6788.985254c -3.07  -2.95
iter: 142 00:36:53 -6788.991765c -3.00  -2.98
iter: 143 00:53:10 -6788.995363c -2.79  -2.93
iter: 144 01:09:40 -6788.996355c -3.10  -2.86
Writing to output.gpw (mode='')

iter: 145 01:26:04 -6788.995901c -3.21  -2.81
iter: 146 01:42:37 -6788.994554c -3.35  -2.80
iter: 147 01:59:03 -6789.000398c -3.44  -2.80
iter: 148 02:15:26 -6788.988864c -3.09  -2.73
iter: 149 02:31:44 -6788.989273c -2.99  -2.90
Writing to output.gpw (mode='')

iter: 150 02:47:46 -6788.992880c -3.02  -3.04
iter: 151 03:04:11 -6788.995032c -3.26  -3.05
iter: 152 03:20:16 -6788.996742c -3.09  -3.07
iter: 153 03:36:23 -6788.997291c -3.43  -3.09
iter: 154 03:52:08 -6788.997228c -3.47  -3.12
Writing to output.gpw (mode='')

iter: 155 04:08:30 -6788.997955c -3.74  -3.21
iter: 156 04:24:48 -6788.998444c -3.58  -3.22
iter: 157 04:40:53 -6788.999673c -3.61  -3.22
iter: 158 04:57:04 -6789.000752c -3.64  -3.24
iter: 159 05:13:28 -6789.001384c -3.57  -3.27
Writing to output.gpw (mode='')

iter: 160 05:29:48 -6789.001543c -3.61  -3.28
iter: 161 05:45:58 -6789.001961c -3.74  -3.33
iter: 162 06:02:08 -6789.002924c -3.76  -3.32
iter: 163 06:18:29 -6789.003305c -3.77  -3.30
iter: 164 06:34:52 -6789.004769c -3.76  -3.29
Writing to output.gpw (mode='')

iter: 165 06:51:00 -6789.004750c -3.75  -3.21
iter: 166 07:07:05 -6789.006293c -3.86  -3.22
iter: 167 07:23:21 -6789.005561c -3.90  -3.15
iter: 168 07:39:58 -6789.007849c -3.72  -3.13
iter: 169 07:56:06 -6789.008355c -3.76  -3.13
Writing to output.gpw (mode='')

iter: 170 08:12:12 -6789.007949c -3.79  -3.10
iter: 171 08:28:31 -6789.011673c -3.62  -3.04
iter: 172 08:44:51 -6789.006038c -3.51  -2.93
iter: 173 09:01:12 -6789.011604c -3.68  -3.09
iter: 174 09:17:31 -6789.006917c -3.49  -2.98
Writing to output.gpw (mode='')

iter: 175 09:33:35 -6789.007559c -3.20  -3.14
iter: 176 09:49:38 -6789.008413c -3.49  -3.15
iter: 177 10:05:55 -6789.009210c -3.80  -3.19
iter: 178 10:22:08 -6789.009863c -3.70  -3.27
iter: 179 10:38:27 -6789.009948c -3.81  -3.27
Writing to output.gpw (mode='')

iter: 180 10:54:44 -6789.010338c -3.64  -3.30
iter: 181 11:11:21 -6789.011668c -3.69  -3.32
iter: 182 11:28:00 -6789.012299c -3.57  -3.37
iter: 183 11:44:42 -6789.012510c -3.73  -3.48
iter: 184 12:01:22 -6789.013810c -3.60  -3.50
Writing to output.gpw (mode='')

iter: 185 12:17:58 -6789.014624c -3.48  -3.40
iter: 186 12:34:22 -6789.015404c -3.56  -3.37
iter: 187 12:50:31 -6789.015992c -3.53  -3.45
iter: 188 13:06:47 -6789.016804c -3.54  -3.52
iter: 189 13:23:22 -6789.017750c -3.51  -3.49
Writing to output.gpw (mode='')

iter: 190 13:39:54 -6789.018699c -3.43  -3.55
iter: 191 13:56:28 -6789.019868c -3.42  -3.58
iter: 192 14:12:38 -6789.021348c -3.34  -3.61
iter: 193 14:29:00 -6789.022500c -3.33  -3.65
iter: 194 14:45:18 -6789.024364c -3.39  -3.67
Writing to output.gpw (mode='')

iter: 195 15:01:30 -6789.025694c -3.25  -3.69
iter: 196 15:17:39 -6789.027418c -3.27  -3.75
iter: 197 15:33:57 -6789.029878c -3.08  -3.83
iter: 198 15:49:49 -6789.032176c -3.23  -3.81
iter: 199 16:06:06 -6789.035185c -3.02  -3.77
Writing to output.gpw (mode='')

iter: 200 16:22:22 -6789.038734c -3.02  -3.71
iter: 201 16:38:21 -6789.040702c -3.12  -3.57
iter: 202 16:54:55 -6789.043071c -3.01  -3.53
iter: 203 17:11:35 -6789.046658c -3.04  -3.50
iter: 204 17:28:10 -6789.053538c -2.88  -3.48
Writing to output.gpw (mode='')

iter: 205 17:44:42 -6789.058116c -2.83  -3.38
iter: 206 18:01:26 -6789.062288c -2.84  -3.33
iter: 207 18:17:48 -6789.065757c -2.83  -3.39
iter: 208 18:34:17 -6789.069552c -2.91  -3.43
iter: 209 18:50:32 -6789.077047c -2.77  -3.43
Writing to output.gpw (mode='')

iter: 210 19:06:59 -6789.088147c -2.56  -3.38
iter: 211 19:23:22 -6789.092337c -2.76  -3.33
iter: 212 19:39:57 -6789.097809c -2.66  -3.30
iter: 213 19:55:54 -6789.103806c -2.77  -3.31
iter: 214 20:12:14 -6789.111457c -2.58  -3.28
Writing to output.gpw (mode='')

iter: 215 20:29:05 -6789.120403c -2.60  -3.27
iter: 216 20:45:49 -6789.126272c -2.80  -3.21
iter: 217 21:02:16 -6789.138810c -2.62  -3.22
iter: 218 21:18:35 -6789.148275c -2.64  -3.14
iter: 219 21:34:58 -6789.156486c -2.72  -3.13
Writing to output.gpw (mode='')

iter: 220 21:51:28 -6789.162090c -2.69  -3.09
iter: 221 22:08:03 -6789.176752c -2.49  -3.08
iter: 222 22:24:23 -6789.182010c -2.77  -3.09
iter: 223 22:40:55 -6789.189616c -2.74  -3.06
iter: 224 22:57:07 -6789.197379c -2.87  -3.03
Writing to output.gpw (mode='')

iter: 225 23:13:20 -6789.208322c -2.60  -2.99
iter: 226 23:29:51 -6789.211087c -3.03  -2.99
iter: 227 23:46:10 -6789.221734c -2.82  -3.01
iter: 228 00:02:45 -6789.221183c -2.95  -2.86
iter: 229 00:19:24 -6789.226957c -2.93  -2.92
Writing to output.gpw (mode='')

iter: 230 00:36:20 -6789.245882c -2.83  -2.88
iter: 231 00:52:39 -6789.238445c -3.00  -2.67
iter: 232 01:09:04 -6789.247249c -3.19  -2.72
iter: 233 01:25:21 -6789.236556c -2.90  -2.66
iter: 234 01:41:45 -6789.239955c -3.02  -2.77
Writing to output.gpw (mode='')

iter: 235 01:58:18 -6789.249676c -2.75  -2.78
iter: 236 02:14:52 -6789.244788c -2.98  -2.73
iter: 237 02:31:53 -6789.244523c -3.21  -2.85
iter: 238 02:48:51 -6789.245149c -3.22  -3.00
iter: 239 03:05:33 -6789.246797c -3.34  -3.06
Writing to output.gpw (mode='')

iter: 240 03:21:59 -6789.247673c -3.22  -3.12
iter: 241 03:38:39 -6789.249313c -3.44  -3.18
iter: 242 03:55:09 -6789.249906c -3.37  -3.20
iter: 243 04:11:30 -6789.250383c -3.56  -3.19
iter: 244 04:27:55 -6789.251641c -3.65  -3.18
Writing to output.gpw (mode='')

iter: 245 04:44:17 -6789.253138c -3.56  -3.14
iter: 246 05:00:45 -6789.253716c -3.64  -3.06
iter: 247 05:17:16 -6789.252061c -3.56  -3.04
iter: 248 05:33:54 -6789.252595c -3.44  -3.24
iter: 249 05:50:29 -6789.253097c -3.92  -3.22
Writing to output.gpw (mode='')

iter: 250 06:06:54 -6789.253959c -3.81  -3.31
iter: 251 06:23:41 -6789.254888c -3.76  -3.26
iter: 252 06:40:00 -6789.253922c -4.14  -3.20
iter: 253 06:56:03 -6789.254394c -3.65  -3.26
iter: 254 07:12:19 -6789.254307c -3.96  -3.34
Writing to output.gpw (mode='')

iter: 255 07:28:39 -6789.254417c -4.01  -3.43
iter: 256 07:44:51 -6789.254589c -4.23  -3.50
iter: 257 08:01:01 -6789.254996c -4.21  -3.54
iter: 258 08:17:38 -6789.255172c -4.16  -3.54
iter: 259 08:34:21 -6789.255124c -4.48  -3.51
Writing to output.gpw (mode='')

iter: 260 08:51:04 -6789.255172c -4.48  -3.52
iter: 261 09:08:04 -6789.255474c -4.59  -3.53
iter: 262 09:24:29 -6789.255552c -4.55  -3.47
iter: 263 09:41:04 -6789.255606c -4.62  -3.45
iter: 264 09:57:28 -6789.255494c -4.49  -3.44
Writing to output.gpw (mode='')

iter: 265 10:13:50 -6789.255591c -4.73  -3.54
iter: 266 10:29:57 -6789.255654c -4.69  -3.58
iter: 267 10:46:50 -6789.255685c -4.81  -3.59
iter: 268 11:03:00 -6789.255765c -4.84  -3.60
iter: 269 11:19:19 -6789.256229c -4.49  -3.63
Writing to output.gpw (mode='')

iter: 270 11:35:48 -6789.255880c -4.75  -3.45
iter: 271 11:52:55 -6789.256030c -5.09  -3.51
iter: 272 12:09:24 -6789.256010c -4.91  -3.49
iter: 273 12:25:46 -6789.256107c -5.16  -3.51
iter: 274 12:41:53 -6789.256076c -4.44  -3.50
Writing to output.gpw (mode='')

iter: 275 12:58:08 -6789.255959c -4.69  -3.50
iter: 276 13:14:49 -6789.256023c -4.92  -3.61
iter: 277 13:31:12 -6789.256043c -5.06  -3.74
iter: 278 13:47:26 -6789.256052c -5.23  -3.76
iter: 279 14:03:33 -6789.256035c -5.28  -3.82
Writing to output.gpw (mode='')

iter: 280 14:19:34 -6789.256114c -5.05  -3.89
iter: 281 14:35:48 -6789.256066c -5.07  -3.83
iter: 282 14:52:07 -6789.256073c -5.49  -3.96
iter: 283 15:08:30 -6789.256092c -5.45  -3.96
iter: 284 15:24:15 -6789.256093c -5.48  -3.91
Writing to output.gpw (mode='')

iter: 285 15:40:37 -6789.256092c -5.54  -3.91
iter: 286 15:56:56 -6789.256140c -5.44  -3.94
iter: 287 16:13:03 -6789.256095c -5.52  -3.82
iter: 288 16:29:20 -6789.256099c -5.56  -4.03c
iter: 289 16:45:46 -6789.256110c -5.48  -4.22c
Writing to output.gpw (mode='')

iter: 290 17:02:18 -6789.256115c -5.73  -4.25c
iter: 291 17:18:35 -6789.256149c -5.67  -4.24c
iter: 292 17:34:41 -6789.256160c -5.35  -4.08c
iter: 293 17:51:03 -6789.256174c -5.50  -3.99
iter: 294 18:07:37 -6789.256170c -5.58  -3.92
Writing to output.gpw (mode='')

iter: 295 18:24:13 -6789.256160c -5.96  -3.87
iter: 296 18:40:44 -6789.256157c -6.08  -3.88
iter: 297 18:56:52 -6789.256155c -6.08  -3.88
iter: 298 19:13:15 -6789.256168c -5.76  -3.88
iter: 299 19:29:22 -6789.256146c -5.84  -3.88
Writing to output.gpw (mode='')

iter: 300 19:45:46 -6789.256157c -5.54  -3.93
iter: 301 20:02:04 -6789.256138c -5.59  -3.90
iter: 302 20:18:20 -6789.256161c -5.72  -3.95
iter: 303 20:35:10 -6789.256140c -5.19  -3.97
iter: 304 20:51:17 -6789.256143c -5.46  -4.05c
Writing to output.gpw (mode='')

iter: 305 21:07:52 -6789.256143c -5.79  -4.06c
iter: 306 21:24:11 -6789.256141c -6.35  -4.07c
iter: 307 21:40:39 -6789.256154c -5.86  -4.11c
iter: 308 21:57:18 -6789.256146c -5.75  -4.13c
iter: 309 22:13:40 -6789.256148c -5.66  -4.16c
Writing to output.gpw (mode='')

iter: 310 22:30:08 -6789.256139c -5.90  -4.26c
iter: 311 22:46:29 -6789.256140c -6.40  -4.53c
iter: 312 23:02:43 -6789.256142c -6.39  -4.65c
iter: 313 23:19:07 -6789.256142c -6.52  -4.66c
iter: 314 23:35:44 -6789.256142c -6.63  -4.67c
Writing to output.gpw (mode='')

iter: 315 23:51:47 -6789.256143c -6.81  -4.73c
iter: 316 00:08:16 -6789.256143c -6.81  -4.72c
iter: 317 00:24:36 -6789.256144c -6.74  -4.72c
iter: 318 00:41:25 -6789.256144c -6.90  -4.70c
iter: 319 00:58:07 -6789.256145c -6.87  -4.70c
Writing to output.gpw (mode='')

iter: 320 01:14:23 -6789.256145c -6.92  -4.69c
iter: 321 01:30:41 -6789.256145c -6.90  -4.70c
iter: 322 01:46:56 -6789.256146c -6.94  -4.68c
iter: 323 02:03:32 -6789.256146c -6.85  -4.67c
iter: 324 02:19:36 -6789.256148c -6.67  -4.68c
Writing to output.gpw (mode='')

iter: 325 02:36:02 -6789.256148c -6.67  -4.64c
iter: 326 02:52:36 -6789.256147c -6.90  -4.62c
iter: 327 03:09:07 -6789.256147c -7.14  -4.71c
iter: 328 03:25:44 -6789.256148c -6.97  -4.71c
iter: 329 03:42:27 -6789.256148c -7.09  -4.72c
Writing to output.gpw (mode='')

iter: 330 03:58:41 -6789.256148c -7.03  -4.69c
iter: 331 04:14:52 -6789.256148c -7.15  -4.71c
iter: 332 04:31:08 -6789.256148c -7.03  -4.72c
iter: 333 04:47:26 -6789.256149c -6.91  -4.75c
iter: 334 05:03:44 -6789.256150c -6.91  -4.76c
Writing to output.gpw (mode='')

iter: 335 05:20:14 -6789.256149c -7.12  -4.71c
iter: 336 05:36:19 -6789.256149c -7.08  -4.73c
iter: 337 05:53:04 -6789.256150c -7.14  -4.75c
iter: 338 06:09:41 -6789.256150c -7.05  -4.73c
iter: 339 06:26:14 -6789.256150c -6.93  -4.77c
Writing to output.gpw (mode='')

iter: 340 06:42:39 -6789.256150c -7.09  -4.77c
iter: 341 06:58:53 -6789.256151c -7.36  -4.80c
iter: 342 07:15:22 -6789.256151c -7.25  -4.80c
iter: 343 07:31:27 -6789.256151c -7.19  -4.80c
iter: 344 07:47:44 -6789.256151c -7.18  -4.78c
Writing to output.gpw (mode='')

iter: 345 08:04:04 -6789.256151c -7.24  -4.78c
iter: 346 08:20:37 -6789.256152c -7.12  -4.78c
iter: 347 08:37:00 -6789.256152c -7.07  -4.70c
iter: 348 08:53:24 -6789.256152c -7.12  -4.80c
iter: 349 09:09:38 -6789.256152c -7.11  -4.92c
Writing to output.gpw (mode='')

iter: 350 09:25:57 -6789.256152c -7.24  -4.97c
iter: 351 09:42:14 -6789.256152c -7.17  -5.00c
iter: 352 09:58:37 -6789.256152c -7.20  -5.01c
iter: 353 10:15:00 -6789.256152c -7.27  -5.07c
iter: 354 10:31:29 -6789.256152c -7.39  -5.09c
Writing to output.gpw (mode='')

iter: 355 10:48:11 -6789.256153c -7.32  -5.07c
iter: 356 11:04:45 -6789.256153c -7.30  -5.02c
iter: 357 11:21:26 -6789.256153c -7.47c -5.05c

Converged after 357 iterations.

Dipole moment: (-82.729376, -47.763828, -0.000000) |e|*Ang

Energy contributions relative to reference atoms: (reference = -7966002.330397)

Kinetic:       +112.996286
Potential:      -40.009212
External:        +0.000000
XC:            -6855.547575
Entropy (-ST):   -0.000000
Local:           -6.695652
--------------------------
Free energy:   -6789.256153
Extrapolated:  -6789.256153

Dipole-layer corrected work functions: -inf, -inf eV

Showing all kpts
 Kpt  Band  Eigenvalues  Occupancy
  0   178     -2.47406    2.00000
  0   179     -2.47404    2.00000

  1   178     -2.46696    2.00000
  1   179     -2.32927    2.00000


Fermi level: inf

Writing to output.gpw (mode='')


Forces in eV/Ang:
  0 Ba    0.00000   -0.00000    0.11501
  1 Ba   -0.01236   -0.00006    0.11844
  2 Ba    0.01236   -0.00006    0.11844
  3 Ba   -0.00623   -0.01067    0.11844
  4 Ba    0.00000   -0.00000    0.12054
  5 Ba    0.00623   -0.01067    0.11844
  6 Ba    0.00612    0.01073    0.11844
  7 Ba   -0.00612    0.01073    0.11844
  8 Ba    0.00000   -0.00000    0.12051
  9 Ba    0.00358    0.00207    0.40208
 10 Ba    0.00000    0.02488    0.40398
 11 Ba   -0.00358    0.00207    0.40208
 12 Ba    0.02155   -0.01244    0.40398
 13 Ba   -0.02155   -0.01244    0.40398
 14 Ba    0.00000    0.00469    0.40103
 15 Ba    0.00000   -0.00414    0.40208
 16 Ba    0.00406   -0.00234    0.40103
 17 Ba   -0.00406   -0.00234    0.40103
 18 Ba    0.00000    0.00414   -0.40208
 19 Ba    0.00406    0.00234   -0.40103
 20 Ba   -0.00406    0.00234   -0.40103
 21 Ba   -0.02155    0.01244   -0.40398
 22 Ba    0.00000   -0.00469   -0.40103
 23 Ba    0.02155    0.01244   -0.40398
 24 Ba   -0.00358   -0.00207   -0.40208
 25 Ba    0.00358   -0.00207   -0.40208
 26 Ba    0.00000   -0.02488   -0.40398
 27 Ba   -0.00000    0.00000   -0.11501
 28 Ba   -0.01236    0.00006   -0.11844
 29 Ba    0.01236    0.00006   -0.11844
 30 Ba   -0.00612   -0.01073   -0.11844
 31 Ba    0.00000   -0.00000   -0.12051
 32 Ba    0.00612   -0.01073   -0.11844
 33 Ba    0.00623    0.01067   -0.11844
 34 Ba   -0.00623    0.01067   -0.11844
 35 Ba    0.00000    0.00000   -0.12054

System changes: positions 

Initializing position-dependent things.

Density initialized from wave functions
                                                                                        
                                                                                        
                                                                                        
                                                                                        
                                                                                        
                                   Ba                Ba               Ba                
                                 Ba               Ba               Ba                   
                                                                                        
                                           Ba               Ba               Ba         
                      Ba                Ba               Ba                             
                    Ba               Ba                Ba                               
                                 Ba               Ba               Ba                   
                              Ba               Ba                Ba                     
          Ba               Ba                Ba                                         
       Ba                Ba               Ba                                            
                    Ba               Ba                Ba                               
                 Ba                Ba               Ba                                  
                                                                                        
                                                                                        
       Ba                Ba               Ba                                            
                                                                                        
                                                                                        
                                                                                        
                                                                                        

Positions:
   0 Ba     0.000000   -0.000000   10.001643    ( 0.0000,  0.0000,  0.0000)
   1 Ba     7.099176   -0.000001   10.001692    ( 0.0000,  0.0000,  0.0000)
   2 Ba    14.198881   -0.000001   10.001692    ( 0.0000,  0.0000,  0.0000)
   3 Ba     3.549587    6.148067   10.001692    ( 0.0000,  0.0000,  0.0000)
   4 Ba    10.649028    6.148219   10.001722    ( 0.0000,  0.0000,  0.0000)
   5 Ba    17.748469    6.148067   10.001692    ( 0.0000,  0.0000,  0.0000)
   6 Ba     7.099440   12.296592   10.001692    ( 0.0000,  0.0000,  0.0000)
   7 Ba    14.198617   12.296592   10.001692    ( 0.0000,  0.0000,  0.0000)
   8 Ba    21.298056   12.296439   10.001722    ( 0.0000,  0.0000,  0.0000)
   9 Ba     3.549727    2.049436   11.454893    ( 0.0000,  0.0000,  0.0000)
  10 Ba    10.649028    2.049762   11.454920    ( 0.0000,  0.0000,  0.0000)
  11 Ba    17.748329    2.049436   11.454893    ( 0.0000,  0.0000,  0.0000)
  12 Ba     7.099660    8.197448   11.454920    ( 0.0000,  0.0000,  0.0000)
  13 Ba    14.198396    8.197448   11.454920    ( 0.0000,  0.0000,  0.0000)
  14 Ba    21.298056    8.197693   11.454878    ( 0.0000,  0.0000,  0.0000)
  15 Ba    10.649028   14.345786   11.454893    ( 0.0000,  0.0000,  0.0000)
  16 Ba    17.748438   14.345811   11.454878    ( 0.0000,  0.0000,  0.0000)
  17 Ba    24.847674   14.345811   11.454878    ( 0.0000,  0.0000,  0.0000)
  18 Ba     0.000000    4.098872   12.892554    ( 0.0000,  0.0000,  0.0000)
  19 Ba     7.099410    4.098846   12.892569    ( 0.0000,  0.0000,  0.0000)
  20 Ba    14.198646    4.098846   12.892569    ( 0.0000,  0.0000,  0.0000)
  21 Ba     3.549368   10.247210   12.892527    ( 0.0000,  0.0000,  0.0000)
  22 Ba    10.649028   10.246965   12.892569    ( 0.0000,  0.0000,  0.0000)
  23 Ba    17.748688   10.247210   12.892527    ( 0.0000,  0.0000,  0.0000)
  24 Ba     7.099301   16.395222   12.892554    ( 0.0000,  0.0000,  0.0000)
  25 Ba    14.198755   16.395222   12.892554    ( 0.0000,  0.0000,  0.0000)
  26 Ba    21.298056   16.394896   12.892527    ( 0.0000,  0.0000,  0.0000)
  27 Ba    -0.000000    0.000000   14.345805    ( 0.0000,  0.0000,  0.0000)
  28 Ba     7.099176    0.000001   14.345756    ( 0.0000,  0.0000,  0.0000)
  29 Ba    14.198881    0.000001   14.345756    ( 0.0000,  0.0000,  0.0000)
  30 Ba     3.549589    6.148066   14.345756    ( 0.0000,  0.0000,  0.0000)
  31 Ba    10.649028    6.148219   14.345726    ( 0.0000,  0.0000,  0.0000)
  32 Ba    17.748468    6.148066   14.345756    ( 0.0000,  0.0000,  0.0000)
  33 Ba     7.099441   12.296591   14.345756    ( 0.0000,  0.0000,  0.0000)
  34 Ba    14.198615   12.296591   14.345756    ( 0.0000,  0.0000,  0.0000)
  35 Ba    21.298056   12.296439   14.345726    ( 0.0000,  0.0000,  0.0000)

Unit cell:
           periodic     x           y           z      points  spacing
  1. axis:    yes   21.298056    0.000000    0.000000   116     0.1590
  2. axis:    yes   10.649028   18.444658    0.000000   116     0.1590
  3. axis:    no     0.000000    0.000000   24.347448   152     0.1602

  Lengths:  21.298056  21.298056  24.347448
  Angles:   90.000000  90.000000  60.000000

Effective grid spacing dv^(1/3) = 0.1672

     iter     time        total  log10-change:
                         energy  eigst   dens
iter:   1 11:39:40 -6789.300846  -3.28
iter:   2 11:56:09 -6789.301228  -3.92  -3.56
iter:   3 12:12:41 -6789.301434c -4.43  -3.44
iter:   4 12:29:08 -6789.301235c -4.67  -3.34
Writing to output.gpw (mode='')

iter:   5 12:45:44 -6789.301036c -5.10  -3.44
iter:   6 13:02:00 -6789.301056c -4.92  -3.79
iter:   7 13:17:59 -6789.301089c -5.49  -3.83
iter:   8 13:34:30 -6789.301179c -4.73  -3.91
iter:   9 13:50:53 -6789.301257c -4.89  -3.77
Writing to output.gpw (mode='')

iter:  10 14:06:57 -6789.301277c -4.88  -3.66
iter:  11 14:23:45 -6789.301327c -5.17  -3.60
iter:  12 14:40:13 -6789.301345c -5.11  -3.53
iter:  13 14:56:44 -6789.301369c -5.34  -3.50
iter:  14 15:13:02 -6789.301452c -5.38  -3.46
Writing to output.gpw (mode='')

iter:  15 15:29:18 -6789.301222c -5.58  -3.41
iter:  16 15:45:22 -6789.301297c -5.84  -3.48
iter:  17 16:01:29 -6789.301233c -5.83  -3.47
iter:  18 16:17:56 -6789.301075c -5.34  -3.49
iter:  19 16:34:16 -6789.301068c -4.98  -3.68
Writing to output.gpw (mode='')

iter:  20 16:50:25 -6789.301065c -5.32  -3.76
iter:  21 17:07:02 -6789.301100c -4.98  -3.94
iter:  22 17:23:42 -6789.301115c -4.99  -4.03c
iter:  23 17:39:49 -6789.301142c -5.29  -4.00
iter:  24 17:56:01 -6789.301128c -5.36  -3.92
Writing to output.gpw (mode='')

iter:  25 18:12:41 -6789.301133c -5.93  -3.93
iter:  26 18:29:01 -6789.301136c -5.87  -3.90
iter:  27 18:45:44 -6789.301142c -6.04  -3.89
iter:  28 19:02:19 -6789.301112c -5.81  -3.86
iter:  29 19:18:22 -6789.301154c -5.67  -3.86
Writing to output.gpw (mode='')

iter:  30 19:34:56 -6789.301106c -5.75  -3.79
iter:  31 19:51:29 -6789.301099c -5.34  -3.86
iter:  32 20:07:39 -6789.301108c -5.44  -4.03c
iter:  33 20:23:42 -6789.301116c -5.90  -4.06c
iter:  34 20:39:56 -6789.301118c -5.70  -4.02c
Writing to output.gpw (mode='')

iter:  35 20:56:20 -6789.301118c -6.21  -3.99
iter:  36 21:12:53 -6789.301119c -6.25  -3.97
iter:  37 21:29:27 -6789.301144c -6.09  -3.95
iter:  38 21:45:51 -6789.301174c -5.45  -3.88
iter:  39 22:02:14 -6789.301135c -5.89  -3.80
Writing to output.gpw (mode='')

iter:  40 22:18:13 -6789.301133c -6.21  -3.85
iter:  41 22:34:40 -6789.301109c -6.28  -3.87
iter:  42 22:51:13 -6789.301096c -6.11  -3.94
iter:  43 23:08:06 -6789.301092c -5.66  -4.01c
iter:  44 23:24:31 -6789.301099c -5.49  -4.07c
Writing to output.gpw (mode='')

iter:  45 23:40:55 -6789.301110c -5.43  -4.28c
iter:  46 23:57:13 -6789.301120c -5.77  -4.32c
iter:  47 00:13:17 -6789.301138c -5.41  -4.19c
iter:  48 00:30:09 -6789.301140c -5.65  -4.08c
iter:  49 00:46:39 -6789.301162c -5.59  -4.02c
Writing to output.gpw (mode='')

iter:  50 01:02:52 -6789.301177c -5.44  -3.92
iter:  51 01:19:08 -6789.301202c -5.56  -3.86
iter:  52 01:35:32 -6789.301224c -5.36  -3.79
iter:  53 01:52:02 -6789.301135c -6.00  -3.74
iter:  54 02:08:43 -6789.301165c -6.49  -3.81
Writing to output.gpw (mode='')

iter:  55 02:25:19 -6789.301207c -5.83  -3.78
iter:  56 02:41:52 -6789.301207c -5.70  -3.71
iter:  57 02:58:44 -6789.301152c -4.78  -3.70
iter:  58 03:15:10 -6789.301130c -4.89  -3.94
iter:  59 03:31:40 -6789.301138c -5.28  -4.00c
Writing to output.gpw (mode='')

iter:  60 03:47:52 -6789.301114c -5.89  -4.09c
iter:  61 04:04:25 -6789.301105c -6.50  -4.17c
iter:  62 04:20:48 -6789.301110c -6.33  -4.31c
iter:  63 04:37:18 -6789.301111c -6.51  -4.32c
iter:  64 04:54:04 -6789.301114c -6.35  -4.31c
Writing to output.gpw (mode='')

iter:  65 05:10:18 -6789.301122c -6.38  -4.28c
iter:  66 05:26:34 -6789.301119c -6.07  -4.15c
iter:  67 05:43:00 -6789.301122c -6.04  -4.13c
iter:  68 05:59:38 -6789.301130c -6.06  -4.10c
iter:  69 06:16:02 -6789.301115c -6.50  -4.05c
Writing to output.gpw (mode='')

iter:  70 06:32:47 -6789.301133c -6.41  -4.10c
iter:  71 06:49:39 -6789.301115c -5.97  -4.00c
iter:  72 07:06:06 -6789.301121c -5.65  -4.11c
iter:  73 07:22:38 -6789.301119c -6.08  -4.11c
iter:  74 07:39:20 -6789.301112c -6.09  -4.11c
Writing to output.gpw (mode='')

iter:  75 07:55:42 -6789.301113c -5.96  -4.20c
iter:  76 08:11:54 -6789.301113c -5.98  -4.24c
iter:  77 08:28:20 -6789.301115c -5.93  -4.35c
iter:  78 08:44:21 -6789.301117c -6.34  -4.35c
iter:  79 09:00:46 -6789.301127c -6.03  -4.34c
Writing to output.gpw (mode='')

iter:  80 09:17:16 -6789.301129c -5.78  -4.23c
iter:  81 09:33:41 -6789.301128c -6.09  -4.19c
iter:  82 09:50:07 -6789.301113c -6.35  -4.16c
iter:  83 10:06:28 -6789.301114c -6.10  -4.31c
iter:  84 10:22:52 -6789.301116c -6.05  -4.38c
Writing to output.gpw (mode='')

iter:  85 10:39:05 -6789.301121c -6.13  -4.42c
iter:  86 10:55:36 -6789.301127c -5.67  -4.52c
iter:  87 11:11:48 -6789.301126c -6.02  -4.40c
iter:  88 11:27:45 -6789.301160c -5.92  -4.36c
iter:  89 11:44:10 -6789.301152c -5.56  -4.04c
Writing to output.gpw (mode='')

iter:  90 12:00:22 -6789.301127c -6.33  -4.02c
iter:  91 12:16:29 -6789.301132c -6.58  -4.10c
iter:  92 12:32:53 -6789.301132c -6.55  -4.10c
iter:  93 12:48:57 -6789.301198c -5.79  -4.09c
iter:  94 13:05:38 -6789.301082c -5.37  -3.82
Writing to output.gpw (mode='')

iter:  95 13:22:05 -6789.301115c -5.36  -4.17c
iter:  96 13:38:38 -6789.301116c -6.02  -4.20c
iter:  97 13:55:29 -6789.301127c -6.20  -4.27c
iter:  98 14:11:57 -6789.301163c -5.42  -4.23c
iter:  99 14:28:35 -6789.301147c -5.67  -4.01c
Writing to output.gpw (mode='')

iter: 100 14:44:59 -6789.301126c -5.78  -4.04c
iter: 101 15:01:28 -6789.301132c -5.45  -4.40c
iter: 102 15:17:49 -6789.301135c -5.73  -4.45c
iter: 103 15:33:47 -6789.301134c -6.02  -4.45c
iter: 104 15:50:08 -6789.301133c -6.42  -4.49c
Writing to output.gpw (mode='')

iter: 105 16:06:35 -6789.301135c -6.55  -4.50c
iter: 106 16:22:50 -6789.301137c -6.31  -4.48c
iter: 107 16:39:05 -6789.301135c -6.40  -4.45c
iter: 108 16:55:31 -6789.301136c -6.33  -4.47c
iter: 109 17:11:50 -6789.301141c -6.30  -4.47c
Writing to output.gpw (mode='')

iter: 110 17:27:41 -6789.301147c -6.10  -4.41c
iter: 111 17:43:37 -6789.301150c -5.92  -4.36c
iter: 112 17:59:54 -6789.301139c -6.12  -4.32c
iter: 113 18:15:57 -6789.301141c -5.87  -4.47c
iter: 114 18:32:08 -6789.301143c -5.87  -4.56c
Writing to output.gpw (mode='')

iter: 115 18:48:33 -6789.301145c -6.24  -4.80c
iter: 116 19:04:50 -6789.301146c -6.39  -4.81c
iter: 117 19:21:14 -6789.301147c -6.29  -4.77c
iter: 118 19:37:46 -6789.301148c -6.42  -4.83c
iter: 119 19:54:02 -6789.301152c -6.11  -4.83c
Writing to output.gpw (mode='')

iter: 120 20:10:42 -6789.301153c -6.26  -4.74c
iter: 121 20:27:03 -6789.301157c -6.15  -4.72c
iter: 122 20:43:06 -6789.301158c -6.20  -4.60c
iter: 123 20:59:10 -6789.301159c -6.21  -4.58c
iter: 124 21:15:22 -6789.301160c -6.02  -4.68c
Writing to output.gpw (mode='')

iter: 125 21:31:35 -6789.301163c -6.02  -4.81c
iter: 126 21:48:03 -6789.301165c -6.10  -4.82c
iter: 127 22:04:24 -6789.301167c -6.15  -4.83c
iter: 128 22:20:58 -6789.301171c -5.98  -4.89c
iter: 129 22:37:43 -6789.301173c -6.18  -4.85c
Writing to output.gpw (mode='')

iter: 130 22:53:54 -6789.301176c -5.94  -4.81c
iter: 131 23:10:21 -6789.301179c -6.11  -4.95c
iter: 132 23:26:23 -6789.301181c -6.09  -5.02c
iter: 133 23:42:28 -6789.301183c -6.08  -5.07c
iter: 134 23:58:44 -6789.301186c -6.00  -5.07c
Writing to output.gpw (mode='')

iter: 135 00:15:18 -6789.301190c -5.93  -4.98c
iter: 136 00:31:50 -6789.301194c -5.97  -4.84c
iter: 137 00:48:54 -6789.301196c -6.10  -4.69c
iter: 138 01:05:15 -6789.301203c -5.92  -4.84c
iter: 139 01:21:19 -6789.301206c -5.72  -4.65c
Writing to output.gpw (mode='')

iter: 140 01:37:49 -6789.301210c -5.85  -4.86c
iter: 141 01:54:04 -6789.301215c -5.90  -4.99c
iter: 142 02:10:34 -6789.301219c -5.92  -4.99c
iter: 143 02:27:03 -6789.301227c -5.69  -4.98c
iter: 144 02:43:35 -6789.301232c -5.83  -4.82c
Writing to output.gpw (mode='')

iter: 145 02:59:49 -6789.301236c -5.78  -4.84c
iter: 146 03:15:51 -6789.301246c -5.62  -4.84c
iter: 147 03:32:01 -6789.301251c -5.89  -4.65c
iter: 148 03:48:05 -6789.301256c -5.65  -4.70c
iter: 149 04:04:01 -6789.301266c -5.75  -4.71c
Writing to output.gpw (mode='')

iter: 150 04:20:00 -6789.301272c -5.57  -4.59c
iter: 151 04:35:58 -6789.301282c -5.50  -4.74c
iter: 152 04:52:18 -6789.301289c -5.62  -4.67c
iter: 153 05:08:17 -6789.301309c -5.46  -4.62c
iter: 154 05:24:22 -6789.301315c -5.63  -4.27c
Writing to output.gpw (mode='')

iter: 155 05:40:38 -6789.301321c -5.45  -4.25c
iter: 156 05:57:00 -6789.301356c -5.47  -4.24c
iter: 157 06:13:11 -6789.301334c -5.38  -4.06c
iter: 158 06:29:26 -6789.301357c -5.67  -4.21c
iter: 159 06:45:38 -6789.301384c -4.96  -4.17c
Writing to output.gpw (mode='')

iter: 160 07:02:05 -6789.301397c -5.42  -4.40c
iter: 161 07:18:31 -6789.301440c -5.14  -4.35c
iter: 162 07:34:57 -6789.301431c -5.38  -4.06c
iter: 163 07:51:02 -6789.301429c -5.22  -4.11c
iter: 164 08:07:19 -6789.301438c -5.30  -4.33c
Writing to output.gpw (mode='')

iter: 165 08:23:31 -6789.301462c -5.33  -4.49c
iter: 166 08:39:59 -6789.301478c -5.22  -4.37c
iter: 167 08:56:17 -6789.301495c -5.17  -4.59c
iter: 168 09:12:34 -6789.301511c -5.27  -4.76c
iter: 169 09:29:10 -6789.301529c -5.30  -4.76c
Writing to output.gpw (mode='')

iter: 170 09:45:36 -6789.301545c -5.27  -4.75c
iter: 171 10:01:55 -6789.301559c -5.20  -4.75c
iter: 172 10:18:28 -6789.301571c -5.32  -4.72c
iter: 173 10:34:53 -6789.301594c -5.08  -4.69c
iter: 174 10:51:32 -6789.301615c -5.29  -4.60c
Writing to output.gpw (mode='')

iter: 175 11:07:57 -6789.301642c -5.01  -4.56c
iter: 176 11:24:16 -6789.301667c -5.18  -4.50c
iter: 177 11:40:28 -6789.301696c -4.98  -4.48c
iter: 178 11:56:58 -6789.301739c -5.08  -4.45c
iter: 179 12:13:13 -6789.301787c -5.00  -4.53c
Writing to output.gpw (mode='')

iter: 180 12:29:08 -6789.301861c -4.59  -4.43c
iter: 181 12:45:14 -6789.301911c -4.90  -4.36c
iter: 182 13:01:32 -6789.301941c -4.92  -4.20c
iter: 183 13:17:56 -6789.301970c -4.84  -4.12c
iter: 184 13:33:55 -6789.301992c -4.81  -4.08c
Writing to output.gpw (mode='')

iter: 185 13:50:09 -6789.302025c -4.78  -4.54c
iter: 186 14:06:35 -6789.302056c -5.01  -4.67c
iter: 187 14:23:05 -6789.302096c -4.79  -4.62c
iter: 188 14:39:40 -6789.302148c -4.78  -4.53c
iter: 189 14:56:16 -6789.302207c -4.80  -4.36c
Writing to output.gpw (mode='')

iter: 190 15:12:44 -6789.302244c -4.73  -4.67c
iter: 191 15:29:19 -6789.302297c -4.80  -4.63c
iter: 192 15:45:34 -6789.302364c -4.88  -4.53c
iter: 193 16:01:40 -6789.302568c -4.31  -4.58c
iter: 194 16:18:20 -6789.302631c -4.78  -4.06c
Writing to output.gpw (mode='')

iter: 195 16:34:27 -6789.302681c -4.61  -4.00c
iter: 196 16:51:09 -6789.302722c -4.73  -3.96
iter: 197 17:07:30 -6789.302776c -4.58  -4.03c
iter: 198 17:24:12 -6789.302845c -4.70  -4.08c
iter: 199 17:40:43 -6789.303048c -4.31  -4.08c
Writing to output.gpw (mode='')

iter: 200 17:57:27 -6789.303175c -4.46  -4.31c
iter: 201 18:13:48 -6789.303249c -4.51  -4.12c
iter: 202 18:30:03 -6789.303350c -4.42  -4.11c
iter: 203 18:46:30 -6789.303430c -4.60  -4.35c
iter: 204 19:02:27 -6789.303661c -4.20  -4.34c
Writing to output.gpw (mode='')

iter: 205 19:18:25 -6789.303776c -4.54  -4.09c
iter: 206 19:34:35 -6789.303895c -4.36  -4.15c
iter: 207 19:50:40 -6789.304019c -4.41  -4.10c
iter: 208 20:07:00 -6789.304238c -4.39  -4.01c
iter: 209 20:23:08 -6789.304311c -4.39  -3.82
Writing to output.gpw (mode='')

iter: 210 20:39:31 -6789.304415c -4.21  -3.93
iter: 211 20:55:42 -6789.304648c -4.45  -4.08c
iter: 212 21:11:58 -6789.304769c -4.25  -3.95
iter: 213 21:28:12 -6789.304945c -4.27  -3.94
iter: 214 21:44:17 -6789.305254c -4.08  -4.05c
Writing to output.gpw (mode='')

iter: 215 22:00:21 -6789.305430c -4.19  -3.94
iter: 216 22:16:27 -6789.305742c -4.03  -3.86
iter: 217 22:32:36 -6789.305918c -4.16  -3.68
iter: 218 22:48:52 -6789.306074c -4.14  -3.63
iter: 219 23:05:18 -6789.306210c -4.27  -3.62
Writing to output.gpw (mode='')

iter: 220 23:21:50 -6789.306373c -4.20  -3.60
iter: 221 23:38:30 -6789.307131c -4.03  -3.59
iter: 222 23:54:55 -6789.306835c -4.00  -3.39
iter: 223 00:11:20 -6789.307212c -4.17  -3.53
iter: 224 00:27:29 -6789.307360c -4.14  -3.54
Writing to output.gpw (mode='')

iter: 225 00:44:10 -6789.307546c -4.19  -3.56
iter: 226 01:00:46 -6789.308125c -3.79  -3.57
iter: 227 01:17:09 -6789.308439c -3.94  -3.71
iter: 228 01:34:12 -6789.308682c -3.96  -3.76
iter: 229 01:50:40 -6789.309045c -3.93  -3.70
Writing to output.gpw (mode='')

iter: 230 02:07:01 -6789.309155c -4.01  -3.60
iter: 231 02:23:33 -6789.310375c -3.63  -3.67
iter: 232 02:40:17 -6789.310565c -3.95  -3.42
iter: 233 02:56:47 -6789.310821c -3.88  -3.42
iter: 234 03:13:21 -6789.311580c -3.82  -3.41
Writing to output.gpw (mode='')

iter: 235 03:29:45 -6789.311790c -3.86  -3.33
iter: 236 03:46:14 -6789.311945c -3.96  -3.31
iter: 237 04:02:19 -6789.311903c -3.72  -3.32
iter: 238 04:19:07 -6789.312273c -3.86  -3.51
iter: 239 04:35:28 -6789.312738c -3.78  -3.54
Writing to output.gpw (mode='')

iter: 240 04:51:54 -6789.313424c -3.87  -3.56
iter: 241 05:08:20 -6789.313633c -3.83  -3.50
iter: 242 05:25:00 -6789.313923c -3.82  -3.53
iter: 243 05:41:07 -6789.314598c -3.88  -3.55
iter: 244 05:57:46 -6789.316104c -3.51  -3.56
Writing to output.gpw (mode='')

iter: 245 06:13:53 -6789.317203c -3.49  -3.50
iter: 246 06:30:12 -6789.318999c -3.45  -3.53
iter: 247 06:46:44 -6789.320157c -3.28  -3.31
iter: 248 07:03:10 -6789.319157c -3.64  -3.22
iter: 249 07:19:17 -6789.323337c -3.29  -3.35
Writing to output.gpw (mode='')

iter: 250 07:35:41 -6789.323318c -3.43  -3.09
iter: 251 07:51:51 -6789.324039c -3.47  -3.08
iter: 252 08:08:07 -6789.325996c -3.54  -3.04
iter: 253 08:24:41 -6789.327673c -3.46  -2.97
iter: 254 08:40:24 -6789.326568c -3.50  -2.92
Writing to output.gpw (mode='')

iter: 255 08:56:28 -6789.324325c -3.46  -2.92
iter: 256 09:12:46 -6789.325369c -3.58  -3.05
iter: 257 09:29:05 -6789.326589c -3.56  -3.07
iter: 258 09:45:46 -6789.346496c -2.99  -3.07
