
  ___ ___ ___ _ _ _  
 |   |   |_  | | | | 
 | | | | | . | | | | 
 |__ |  _|___|_____|  22.8.0
 |___|_|             

User:   vazumah@f020
Date:   Wed Jan 11 20:04:42 2023
Arch:   x86_64
Pid:    40772
CWD:    /home/vazumah/Python_Projects/Li_NRR/autocad_start/bulk_relaxations/Ba_bulk_bcc
Python: 3.10.6
gpaw:   /home/vazumah/anaconda3/envs/NAME/lib/python3.10/site-packages/gpaw
_gpaw:  /home/vazumah/anaconda3/envs/NAME/lib/python3.10/site-packages/
        _gpaw.cpython-310-x86_64-linux-gnu.so
ase:    /home/vazumah/anaconda3/envs/NAME/lib/python3.10/site-packages/ase (version 3.22.1)
numpy:  /home/vazumah/anaconda3/envs/NAME/lib/python3.10/site-packages/numpy (version 1.23.3)
scipy:  /home/vazumah/anaconda3/envs/NAME/lib/python3.10/site-packages/scipy (version 1.9.1)
libxc:  5.2.3
units:  Angstrom and eV
cores: 32
OpenMP: True
OMP_NUM_THREADS: 1

Input parameters:
  h: 0.16
  kpts: {size: [2, 2, 1]}
  occupations: {name: fermi-dirac,
                width: 0.05}
  xc: BEEF-vdW

System changes: positions, numbers, cell, pbc, initial_charges, initial_magmoms 

Initialize ...

species:
  Ba:
    name: Barium
    id: 3c0c69fceb001740075f2c7491402c79
    Z: 56.0
    valence: 10
    core: 46
    charge: 0.0
    file: /home/vazumah/anaconda3/envs/NAME/share/gpaw/Ba.PBE.gz
    compensation charges: {type: gauss,
                           rc: 0.37,
                           lmax: 2}
    cutoffs: {filter: 2.06,
              core: 2.33}
    valence states:
      #              energy  rcut
      - 5s(2.00)   -33.644   1.164
      - 6s(2.00)    -3.229   1.164
      - 5p(6.00)   -18.744   1.164
      -  p           0.000   1.164
      -  d           0.000   1.164
      -  d          27.211   1.164
  
    # Using partial waves for Ba as LCAO basis

Reference energy: -221277.842511  # eV

Spin-paired calculation

Convergence criteria:
 Maximum [total energy] change in last 3 cyles: 0.0005 eV / electron
 Maximum integral of absolute [dens]ity change: 0.0001 electrons / valence electron
 Maximum integral of absolute [eigenst]ate change: 4e-08 eV^2 / valence electron
 Maximum number of scf [iter]ations: 333
 (Square brackets indicate name in SCF output, whereas a 'c' in
 the SCF output indicates the quantity has converged.)

Symmetries present (total): 48

  ( 1  1  1)  ( 1  1  1)  ( 1  1  1)  ( 1  1  1)  ( 1  1  1)  ( 1  1  1)
  ( 0  0 -1)  ( 0  0 -1)  ( 0 -1  0)  ( 0 -1  0)  (-1  0  0)  (-1  0  0)
  ( 0 -1  0)  (-1  0  0)  ( 0  0 -1)  (-1  0  0)  ( 0  0 -1)  ( 0 -1  0)

  ( 1  0  0)  ( 1  0  0)  ( 1  0  0)  ( 1  0  0)  ( 1  0  0)  ( 1  0  0)
  ( 0  1  0)  ( 0  1  0)  ( 0  0  1)  ( 0  0  1)  (-1 -1 -1)  (-1 -1 -1)
  ( 0  0  1)  (-1 -1 -1)  ( 0  1  0)  (-1 -1 -1)  ( 0  1  0)  ( 0  0  1)

  ( 0  1  0)  ( 0  1  0)  ( 0  1  0)  ( 0  1  0)  ( 0  1  0)  ( 0  1  0)
  ( 1  0  0)  ( 1  0  0)  ( 0  0  1)  ( 0  0  1)  (-1 -1 -1)  (-1 -1 -1)
  ( 0  0  1)  (-1 -1 -1)  ( 1  0  0)  (-1 -1 -1)  ( 1  0  0)  ( 0  0  1)

  ( 0  0  1)  ( 0  0  1)  ( 0  0  1)  ( 0  0  1)  ( 0  0  1)  ( 0  0  1)
  ( 1  0  0)  ( 1  0  0)  ( 0  1  0)  ( 0  1  0)  (-1 -1 -1)  (-1 -1 -1)
  ( 0  1  0)  (-1 -1 -1)  ( 1  0  0)  (-1 -1 -1)  ( 1  0  0)  ( 0  1  0)

  ( 0  0 -1)  ( 0  0 -1)  ( 0  0 -1)  ( 0  0 -1)  ( 0  0 -1)  ( 0  0 -1)
  ( 1  1  1)  ( 1  1  1)  ( 0 -1  0)  ( 0 -1  0)  (-1  0  0)  (-1  0  0)
  ( 0 -1  0)  (-1  0  0)  ( 1  1  1)  (-1  0  0)  ( 1  1  1)  ( 0 -1  0)

  ( 0 -1  0)  ( 0 -1  0)  ( 0 -1  0)  ( 0 -1  0)  ( 0 -1  0)  ( 0 -1  0)
  ( 1  1  1)  ( 1  1  1)  ( 0  0 -1)  ( 0  0 -1)  (-1  0  0)  (-1  0  0)
  ( 0  0 -1)  (-1  0  0)  ( 1  1  1)  (-1  0  0)  ( 1  1  1)  ( 0  0 -1)

  (-1  0  0)  (-1  0  0)  (-1  0  0)  (-1  0  0)  (-1  0  0)  (-1  0  0)
  ( 1  1  1)  ( 1  1  1)  ( 0  0 -1)  ( 0  0 -1)  ( 0 -1  0)  ( 0 -1  0)
  ( 0  0 -1)  ( 0 -1  0)  ( 1  1  1)  ( 0 -1  0)  ( 1  1  1)  ( 0  0 -1)

  (-1 -1 -1)  (-1 -1 -1)  (-1 -1 -1)  (-1 -1 -1)  (-1 -1 -1)  (-1 -1 -1)
  ( 1  0  0)  ( 1  0  0)  ( 0  1  0)  ( 0  1  0)  ( 0  0  1)  ( 0  0  1)
  ( 0  1  0)  ( 0  0  1)  ( 1  0  0)  ( 0  0  1)  ( 1  0  0)  ( 0  1  0)
Note: your k-points are not as symmetric as your crystal!

4 k-points: 2 x 2 x 1 Monkhorst-Pack grid
2 k-points in the irreducible part of the Brillouin zone
       k-points in crystal coordinates                weights
   0:     0.25000000   -0.25000000    0.00000000          2/4
   1:     0.25000000    0.25000000    0.00000000          2/4

Wave functions: Uniform real-space grid
  Kinetic energy operator: 8*3+1=25 point O(h^6) finite-difference Laplacian
  ScaLapack parameters: grid=1x1, blocksize=None
  Wavefunction extrapolation:
    Improved wavefunction reuse through dual PAW basis 

Occupation numbers: Fermi-Dirac:
  width: 0.0500  # eV
 

Eigensolver
   Davidson(niter=2) 

Densities:
  Coarse grid: 24*24*24 grid
  Fine grid: 48*48*48 grid
  Total Charge: 0.000000 

Density mixing:
  Method: separate
  Backend: pulay
  Linear mixing parameter: 0.05
  old densities: 5
  Damping of long wavelength oscillations: 50 

Hamiltonian:
  XC and Coulomb potentials evaluated on a 48*48*48 grid
  Using the BEEF-vdW Exchange-Correlation functional
  Interpolation: tri-quintic (5. degree polynomial)
  Poisson solver: FastPoissonSolver using
    Stencil: 8*3+1=25 point O(h^6) finite-difference Laplacian
    FFT axes: [0, 1, 2]
    FST axes: []
 

XC parameters: BEEF-vdW with 2 nearest neighbor stencil

Memory estimate:
  Process memory now: 113.89 MiB
  Calculator: 1.05 MiB
    Density: 0.64 MiB
      Arrays: 0.17 MiB
      Localized functions: 0.40 MiB
      Mixer: 0.07 MiB
    Hamiltonian: 0.14 MiB
      Arrays: 0.11 MiB
      XC: 0.00 MiB
      Poisson: 0.00 MiB
      vbar: 0.03 MiB
    Wavefunctions: 0.27 MiB
      Arrays psit_nG: 0.07 MiB
      Eigensolver: 0.14 MiB
      Projections: 0.00 MiB
      Projectors: 0.07 MiB

Total number of cores used: 32
Parallelization over k-points: 2
Domain decomposition: 4 x 2 x 2

Number of atoms: 1
Number of atomic orbitals: 5
Number of bands in calculation: 5
Number of valence electrons: 10
Bands to converge: occupied

... initialized

Initializing position-dependent things.

Density initialized from atomic densities
Creating initial wave functions:
  5 bands from LCAO basis set

                
                
                
       Ba       
                
                
                
                

Positions:
   0 Ba     0.000000    0.000000    0.000000    ( 0.0000,  0.0000,  0.0000)

Unit cell:
           periodic     x           y           z      points  spacing
  1. axis:    yes   -2.510000    2.510000    2.510000    24     0.1479
  2. axis:    yes    2.510000   -2.510000    2.510000    24     0.1479
  3. axis:    yes    2.510000    2.510000   -2.510000    24     0.1479

  Lengths:   4.347448   4.347448   4.347448
  Angles:  109.471221 109.471221 109.471221

Effective grid spacing dv^(1/3) = 0.1660

     iter     time        total  log10-change:
                         energy  eigst   dens
iter:   1 20:05:11  -189.516931
iter:   2 20:05:22  -189.592740  +0.39  -1.24
iter:   3 20:05:33  -189.533327  +0.18  -1.28
iter:   4 20:05:44  -189.519978  +0.09  -1.51
Writing to output.gpw (mode='')

iter:   5 20:05:48  -189.542065  -0.20  -1.92
iter:   6 20:05:59  -189.554851  -0.39  -2.04
iter:   7 20:06:09  -189.563320  -0.45  -2.22
iter:   8 20:06:20  -189.569823  -0.66  -2.56
iter:   9 20:06:24  -189.574237  -0.81  -2.33
Writing to output.gpw (mode='')

iter:  10 20:06:35  -189.577871  -0.93  -2.42
iter:  11 20:06:45  -189.580398  -1.12  -2.65
iter:  12 20:06:56  -189.582524c -1.22  -2.45
iter:  13 20:07:01  -189.584267c -1.30  -2.71
iter:  14 20:07:07  -189.585605c -1.45  -2.61
Writing to output.gpw (mode='')

iter:  15 20:07:18  -189.586592c -1.59  -2.85
iter:  16 20:07:29  -189.587421c -1.67  -2.78
iter:  17 20:07:40  -189.588077c -1.78  -2.59
iter:  18 20:07:44  -189.588691c -1.83  -2.49
iter:  19 20:07:50  -189.589146c -1.94  -2.81
Writing to output.gpw (mode='')

iter:  20 20:08:00  -189.589589c -2.00  -2.58
iter:  21 20:08:10  -189.589956c -2.03  -2.83
iter:  22 20:08:21  -189.590207c -2.16  -2.96
iter:  23 20:08:26  -189.590501c -2.13  -2.56
iter:  24 20:08:37  -189.590726c -2.26  -2.53
Writing to output.gpw (mode='')

iter:  25 20:08:48  -189.590957c -2.36  -2.61
iter:  26 20:08:58  -189.591125c -2.36  -2.91
iter:  27 20:09:03  -189.591277c -2.52  -2.92
iter:  28 20:09:09  -189.591396c -2.56  -3.05
iter:  29 20:09:19  -189.591473c -2.65  -3.03
Writing to output.gpw (mode='')

iter:  30 20:09:30  -189.591532c -2.73  -2.85
iter:  31 20:09:41  -189.591545c -2.85  -2.58
iter:  32 20:09:45  -189.591642c -2.90  -2.48
iter:  33 20:09:56  -189.591799c -2.85  -2.50
iter:  34 20:10:08  -189.591853c -2.89  -2.84
Writing to output.gpw (mode='')

iter:  35 20:10:18  -189.591883c -2.99  -2.98
iter:  36 20:10:22  -189.591942c -2.92  -2.64
iter:  37 20:10:33  -189.591997c -3.01  -3.14
iter:  38 20:10:44  -189.592050c -3.07  -3.22
iter:  39 20:10:54  -189.592065c -3.09  -3.18
Writing to output.gpw (mode='')

iter:  40 20:10:59  -189.592071c -3.18  -3.41
iter:  41 20:11:10  -189.592088c -3.19  -3.56
iter:  42 20:11:21  -189.592106c -3.28  -3.74
iter:  43 20:11:32  -189.592120c -3.43  -3.77
iter:  44 20:11:36  -189.592133c -3.54  -3.63
Writing to output.gpw (mode='')

iter:  45 20:11:47  -189.592145c -3.67  -3.74
iter:  46 20:11:57  -189.592154c -3.73  -3.99
iter:  47 20:12:08  -189.592160c -3.80  -4.11c
iter:  48 20:12:12  -189.592169c -3.83  -3.46
iter:  49 20:12:23  -189.592175c -3.92  -4.23c
Writing to output.gpw (mode='')

iter:  50 20:12:33  -189.592179c -4.00  -3.96
iter:  51 20:12:44  -189.592184c -3.99  -3.76
iter:  52 20:12:49  -189.592188c -4.07  -3.78
iter:  53 20:12:59  -189.592191c -4.14  -3.81
iter:  54 20:13:10  -189.592195c -4.17  -3.71
Writing to output.gpw (mode='')

iter:  55 20:13:24  -189.592198c -4.37  -3.73
iter:  56 20:13:26  -189.592199c -4.46  -3.72
iter:  57 20:13:37  -189.592201c -4.49  -3.61
iter:  58 20:13:47  -189.592203c -4.49  -3.74
iter:  59 20:13:58  -189.592204c -4.61  -3.88
Writing to output.gpw (mode='')

iter:  60 20:14:03  -189.592206c -4.59  -3.54
iter:  61 20:14:14  -189.592208c -4.67  -3.73
iter:  62 20:14:24  -189.592207c -4.77  -3.91
iter:  63 20:14:35  -189.592209c -4.68  -3.60
iter:  64 20:14:39  -189.592210c -4.78  -3.97
Writing to output.gpw (mode='')

iter:  65 20:14:49  -189.592209c -4.90  -3.95
iter:  66 20:14:59  -189.592210c -4.79  -3.50
iter:  67 20:15:09  -189.592211c -4.88  -4.27c
iter:  68 20:15:15  -189.592211c -4.90  -4.27c
iter:  69 20:15:26  -189.592212c -5.03  -4.31c
Writing to output.gpw (mode='')

iter:  70 20:15:37  -189.592212c -5.08  -4.67c
iter:  71 20:15:48  -189.592212c -5.14  -4.97c
iter:  72 20:15:52  -189.592212c -5.31  -5.07c
iter:  73 20:16:03  -189.592212c -5.33  -4.93c
iter:  74 20:16:13  -189.592213c -5.45  -4.83c
Writing to output.gpw (mode='')

iter:  75 20:16:25  -189.592213c -5.48  -4.71c
iter:  76 20:16:29  -189.592213c -5.60  -5.48c
iter:  77 20:16:35  -189.592213c -5.64  -5.67c
iter:  78 20:16:40  -189.592213c -5.65  -4.95c
iter:  79 20:16:52  -189.592213c -5.76  -4.82c
Writing to output.gpw (mode='')

iter:  80 20:17:04  -189.592213c -5.83  -5.32c
iter:  81 20:17:15  -189.592213c -5.89  -5.55c
iter:  82 20:17:17  -189.592213c -5.95  -5.28c
iter:  83 20:17:28  -189.592213c -5.96  -5.87c
iter:  84 20:17:39  -189.592213c -6.11  -6.29c
Writing to output.gpw (mode='')

iter:  85 20:17:51  -189.592213c -6.13  -5.71c
iter:  86 20:17:54  -189.592213c -6.19  -5.56c
iter:  87 20:18:13  -189.592214c -6.30  -5.43c
iter:  88 20:18:30  -189.592214c -6.35  -5.21c
iter:  89 20:18:44  -189.592214c -6.41  -5.33c
Writing to output.gpw (mode='')

iter:  90 20:18:58  -189.592214c -6.46  -5.03c
iter:  91 20:19:09  -189.592214c -6.51  -5.07c
iter:  92 20:19:22  -189.592214c -6.61  -5.05c
iter:  93 20:19:38  -189.592214c -6.66  -4.98c
iter:  94 20:19:47  -189.592214c -6.73  -4.92c
Writing to output.gpw (mode='')

iter:  95 20:20:15  -189.592214c -6.80  -4.92c
iter:  96 20:20:24  -189.592214c -6.88  -5.04c
iter:  97 20:20:48  -189.592214c -6.94  -5.00c
iter:  98 20:20:59  -189.592214c -6.99  -4.84c
iter:  99 20:21:34  -189.592214c -7.07  -5.18c
Writing to output.gpw (mode='')

iter: 100 20:22:10  -189.592214c -7.13  -4.88c
iter: 101 20:22:20  -189.592214c -7.16  -5.01c
iter: 102 20:22:52  -189.592214c -7.19  -5.34c
iter: 103 20:23:02  -189.592214c -7.31  -5.66c
iter: 104 20:23:32  -189.592214c -7.34  -5.50c
Writing to output.gpw (mode='')

iter: 105 20:23:41  -189.592214c -7.36  -5.80c
iter: 106 20:24:18  -189.592214c -7.50c -5.93c

Converged after 106 iterations.

Dipole moment: (-1.028091, -1.028091, -1.028091) |e|*Ang

Energy contributions relative to reference atoms: (reference = -221277.842511)

Kinetic:        +11.473963
Potential:       -9.378653
External:        +0.000000
XC:            -191.483687
Entropy (-ST):   -0.000000
Local:           -0.203836
--------------------------
Free energy:   -189.592214
Extrapolated:  -189.592214

Showing all kpts
 Kpt  Band  Eigenvalues  Occupancy
  0     3     -9.14855    2.00000
  0     4      3.10237    2.00000

  1     3     -9.19353    2.00000
  1     4      4.38878    2.00000


Fermi level: inf

Writing to output.gpw (mode='')


Forces in eV/Ang:
  0 Ba    0.00000    0.00000    0.00000

Timing:                              incl.     excl.
-----------------------------------------------------------
Forces:                              0.071     0.071   0.0% |
Hamiltonian:                        27.900     0.000   0.0% |
 Atomic:                             0.240     0.240   0.0% |
  XC Correction:                     0.000     0.000   0.0% |
 Calculate atomic Hamiltonians:      0.006     0.006   0.0% |
 Communicate:                        0.000     0.000   0.0% |
 Hartree integrate/restrict:         0.014     0.014   0.0% |
 Initialize Hamiltonian:             0.000     0.000   0.0% |
 Poisson:                            0.032     0.001   0.0% |
  Communicate from 1D:               0.004     0.004   0.0% |
  Communicate from 2D:               0.017     0.017   0.0% |
  Communicate to 1D:                 0.005     0.005   0.0% |
  Communicate to 2D:                 0.005     0.005   0.0% |
  FFT 1D:                            0.000     0.000   0.0% |
  FFT 2D:                            0.001     0.001   0.0% |
 XC 3D grid:                        27.608     0.079   0.0% |
  VdW-DF integral:                  27.529     0.008   0.0% |
   Convolution:                      0.011     0.011   0.0% |
   FFT:                              0.004     0.004   0.0% |
   gather:                          21.278    21.278   1.8% ||
   hmm1:                             0.008     0.008   0.0% |
   hmm2:                             0.006     0.006   0.0% |
   iFFT:                             0.005     0.005   0.0% |
   potential:                        0.333     0.003   0.0% |
    collect:                         0.010     0.010   0.0% |
    p1:                              0.031     0.031   0.0% |
    p2:                              0.013     0.013   0.0% |
    sum:                             0.274     0.274   0.0% |
   splines:                          5.876     5.876   0.5% |
 vbar:                               0.000     0.000   0.0% |
LCAO initialization:                 0.189     0.049   0.0% |
 LCAO eigensolver:                   0.070     0.001   0.0% |
  Calculate projections:             0.000     0.000   0.0% |
  DenseAtomicCorrection:             0.000     0.000   0.0% |
  Distribute overlap matrix:         0.012     0.012   0.0% |
  Orbital Layouts:                   0.052     0.052   0.0% |
  Potential matrix:                  0.003     0.003   0.0% |
  Sum over cells:                    0.002     0.002   0.0% |
 LCAO to grid:                       0.001     0.001   0.0% |
 Set positions (LCAO WFS):           0.068     0.038   0.0% |
  Basic WFS set positions:           0.003     0.003   0.0% |
  Basis functions set positions:     0.000     0.000   0.0% |
  P tci:                             0.004     0.004   0.0% |
  ST tci:                            0.010     0.010   0.0% |
  mktci:                             0.013     0.013   0.0% |
SCF-cycle:                        1146.971     8.002   0.7% |
 Davidson:                          45.417    29.180   2.5% ||
  Apply hamiltonian:                 2.323     2.323   0.2% |
  Subspace diag:                     7.133     0.012   0.0% |
   calc_h_matrix:                    5.589     0.032   0.0% |
    Apply hamiltonian:               5.556     5.556   0.5% |
   diagonalize:                      1.515     1.515   0.1% |
   rotate_psi:                       0.018     0.018   0.0% |
  calc. matrices:                    6.362     1.973   0.2% |
   Apply hamiltonian:                4.389     4.389   0.4% |
  diagonalize:                       0.032     0.032   0.0% |
  rotate_psi:                        0.387     0.387   0.0% |
 Density:                           18.565     0.002   0.0% |
  Atomic density matrices:           4.574     4.574   0.4% |
  Mix:                               5.220     5.220   0.4% |
  Multipole moments:                 0.050     0.050   0.0% |
  Pseudo density:                    8.719     0.022   0.0% |
   Symmetrize density:               8.697     8.697   0.7% |
 Hamiltonian:                     1074.973     0.011   0.0% |
  Atomic:                           23.776    23.776   2.0% ||
   XC Correction:                    0.001     0.001   0.0% |
  Calculate atomic Hamiltonians:     1.109     1.109   0.1% |
  Communicate:                       0.039     0.039   0.0% |
  Hartree integrate/restrict:        0.441     0.441   0.0% |
  Poisson:                           6.950     0.443   0.0% |
   Communicate from 1D:              1.752     1.752   0.1% |
   Communicate from 2D:              2.139     2.139   0.2% |
   Communicate to 1D:                0.968     0.968   0.1% |
   Communicate to 2D:                1.551     1.551   0.1% |
   FFT 1D:                           0.028     0.028   0.0% |
   FFT 2D:                           0.070     0.070   0.0% |
  XC 3D grid:                     1042.641    14.931   1.3% ||
   VdW-DF integral:               1027.710     0.429   0.0% |
    Convolution:                     0.917     0.917   0.1% |
    FFT:                             0.395     0.395   0.0% |
    gather:                        996.957   996.957  84.8% |---------------------------------|
    hmm1:                            0.743     0.743   0.1% |
    hmm2:                            0.798     0.798   0.1% |
    iFFT:                            0.486     0.486   0.0% |
    potential:                      26.985     0.109   0.0% |
     collect:                        4.563     4.563   0.4% |
     p1:                             3.195     3.195   0.3% |
     p2:                             1.169     1.169   0.1% |
     sum:                           17.948    17.948   1.5% ||
    splines:                         0.001     0.001   0.0% |
  vbar:                              0.006     0.006   0.0% |
 Orthonormalize:                     0.014     0.000   0.0% |
  calc_s_matrix:                     0.000     0.000   0.0% |
  inverse-cholesky:                  0.012     0.012   0.0% |
  projections:                       0.001     0.001   0.0% |
  rotate_psi_s:                      0.000     0.000   0.0% |
Set symmetry:                        0.026     0.026   0.0% |
Other:                               0.788     0.788   0.1% |
-----------------------------------------------------------
Total:                                      1175.945 100.0%

Memory usage: 160.11 MiB
Date: Wed Jan 11 20:24:18 2023
