
  ___ ___ ___ _ _ _  
 |   |   |_  | | | | 
 | | | | | . | | | | 
 |__ |  _|___|_____|  22.8.0
 |___|_|             

User:   vazumah@c21.hercules
Date:   Thu Jan 19 03:14:42 2023
Arch:   x86_64
Pid:    14589
CWD:    /home/vazumah/Python_projects/LiNRR/autocad_start/slab_experiments/free_slabs/Cs/bcc100/substrate
Python: 3.10.8
gpaw:   /home/vazumah/.conda/envs/GPAW/lib/python3.10/site-packages/gpaw
_gpaw:  /home/vazumah/.conda/envs/GPAW/lib/python3.10/site-packages/
        _gpaw.cpython-310-x86_64-linux-gnu.so
ase:    /home/vazumah/.conda/envs/GPAW/lib/python3.10/site-packages/ase (version 3.22.1)
numpy:  /home/vazumah/.conda/envs/GPAW/lib/python3.10/site-packages/numpy (version 1.24.1)
scipy:  /home/vazumah/.conda/envs/GPAW/lib/python3.10/site-packages/scipy (version 1.10.0)
libxc:  5.2.3
units:  Angstrom and eV
cores: 24
OpenMP: True
OMP_NUM_THREADS: 1

Input parameters:
  eigensolver: {name: dav,
                niter: 3}
  h: 0.16
  kpts: {size: [2, 2, 1]}
  maxiter: 999
  mixer: {backend: pulay,
          beta: 0.02,
          method: separate,
          nmaxold: 5,
          weight: 100}
  occupations: {name: fermi-dirac,
                width: 0.05}
  poissonsolver: {dipolelayer: xy}
  xc: BEEF-vdW

System changes: positions, numbers, cell, pbc, initial_charges, initial_magmoms 

Initialize ...

species:
  Cs:
    name: Caesium
    id: fa822afd343f47335d508b9ee4f394c3
    Z: 55.0
    valence: 9
    core: 46
    charge: 0.0
    file: /home/vazumah/.conda/envs/GPAW/share/gpaw/Cs.PBE.gz
    compensation charges: {type: gauss,
                           rc: 0.33,
                           lmax: 2}
    cutoffs: {filter: 2.06,
              core: 2.51}
    valence states:
      #              energy  rcut
      - 5s(2.00)   -26.706   1.164
      - 6s(1.00)    -2.085   1.164
      - 5p(6.00)   -13.523   1.058
      -  p          13.688   1.058
      -  d           0.000   1.058
  
    # Using partial waves for Cs as LCAO basis

Reference energy: -7624802.753492  # eV

Spin-paired calculation

Convergence criteria:
 Maximum [total energy] change in last 3 cyles: 0.0005 eV / electron
 Maximum integral of absolute [dens]ity change: 0.0001 electrons / valence electron
 Maximum integral of absolute [eigenst]ate change: 4e-08 eV^2 / valence electron
 Maximum number of scf [iter]ations: 999
 (Square brackets indicate name in SCF output, whereas a 'c' in
 the SCF output indicates the quantity has converged.)

Symmetries present (total): 8

  ( 1  0  0)  ( 1  0  0)  ( 0  1  0)  ( 0  1  0)  ( 0 -1  0)  ( 0 -1  0)
  ( 0  1  0)  ( 0 -1  0)  ( 1  0  0)  (-1  0  0)  ( 1  0  0)  (-1  0  0)
  ( 0  0  1)  ( 0  0  1)  ( 0  0  1)  ( 0  0  1)  ( 0  0  1)  ( 0  0  1)

  (-1  0  0)  (-1  0  0)
  ( 0  1  0)  ( 0 -1  0)
  ( 0  0  1)  ( 0  0  1)

4 k-points: 2 x 2 x 1 Monkhorst-Pack grid
1 k-point in the irreducible part of the Brillouin zone
       k-points in crystal coordinates                weights
   0:     0.25000000    0.25000000    0.00000000          4/4

Wave functions: Uniform real-space grid
  Kinetic energy operator: 6*3+1=19 point O(h^6) finite-difference Laplacian
  ScaLapack parameters: grid=1x1, blocksize=None
  Wavefunction extrapolation:
    Improved wavefunction reuse through dual PAW basis 

Occupation numbers: Fermi-Dirac:
  width: 0.0500  # eV
 

Eigensolver
   Davidson(niter=3) 

Densities:
  Coarse grid: 112*112*180 grid
  Fine grid: 224*224*360 grid
  Total Charge: 0.000000 

Density mixing:
  Method: separate
  Backend: pulay
  Linear mixing parameter: 0.02
  old densities: 5
  Damping of long wavelength oscillations: 100 

Hamiltonian:
  XC and Coulomb potentials evaluated on a 224*224*360 grid
  Using the BEEF-vdW Exchange-Correlation functional
  Interpolation: tri-quintic (5. degree polynomial)
  Poisson solver: FastPoissonSolver using
    Stencil: 6*3+1=19 point O(h^6) finite-difference Laplacian
    FFT axes: [0, 1]
    FST axes: [2]

Dipole correction along z-axis 

XC parameters: BEEF-vdW with 2 nearest neighbor stencil

Memory estimate:
  Process memory now: 152.57 MiB
  Calculator: 576.80 MiB
    Density: 36.13 MiB
      Arrays: 18.54 MiB
      Localized functions: 10.45 MiB
      Mixer: 7.14 MiB
    Hamiltonian: 12.91 MiB
      Arrays: 12.12 MiB
      XC: 0.00 MiB
      Poisson: 0.00 MiB
      vbar: 0.79 MiB
    Wavefunctions: 527.76 MiB
      Arrays psit_nG: 257.17 MiB
      Eigensolver: 269.26 MiB
      Projections: 0.05 MiB
      Projectors: 1.28 MiB

Total number of cores used: 24
Domain decomposition: 2 x 3 x 4

Number of atoms: 36
Number of atomic orbitals: 180
Number of bands in calculation: 180
Number of valence electrons: 324
Bands to converge: occupied

... initialized

Initializing position-dependent things.

Density initialized from atomic densities
Creating initial wave functions:
  180 bands from LCAO basis set

            .--------------------------------------------.  
           /|                                            |  
          / |                                            |  
         /  |                                            |  
        /   |                                            |  
       /    |                                            |  
      /     |                                            |  
     /      |                                            |  
    /       |                                            |  
   /        |                                            |  
  /         |                                            |  
 *          |                                            |  
 |          |                                            |  
 |          |                                            |  
 |          |                                            |  
 |          |                                            |  
 |      Cs  |          Cs             Cs                 |  
 |          |                                            |  
 |          |     Cs             Cs             Cs       |  
 |          |                                            |  
 |   Cs     |       Cs             Cs                    |  
 |          |                                            |  
 |          | Cs             Cs             Cs           |  
 Cs         |   Cs             Cs                        |  
 |      Cs  |          Cs             Cs                 |  
 |        Cs|     Cs     Cs      Cs     Cs      Cs       |  
 |          |                                            |  
 |   Cs     |       Cs             Cs                    |  
 |          |                                            |  
 |          | Cs             Cs             Cs           |  
 |          |                                            |  
 Cs         |   Cs             Cs                        |  
 |          |                                            |  
 |        Cs|            Cs             Cs               |  
 |          |                                            |  
 |          |                                            |  
 |          .--------------------------------------------.  
 |         /                                            /   
 |        /                                            /    
 |       /                                            /     
 |      /                                            /      
 |     /                                            /       
 |    /                                            /        
 |   /                                            /         
 |  /                                            /          
 | /                                            /           
 |/                                            /            
 *--------------------------------------------*             

Positions:
   0 Cs     3.025000    3.025000   10.000000    ( 0.0000,  0.0000,  0.0000)
   1 Cs     9.075000    3.025000   10.000000    ( 0.0000,  0.0000,  0.0000)
   2 Cs    15.125000    3.025000   10.000000    ( 0.0000,  0.0000,  0.0000)
   3 Cs     3.025000    9.075000   10.000000    ( 0.0000,  0.0000,  0.0000)
   4 Cs     9.075000    9.075000   10.000000    ( 0.0000,  0.0000,  0.0000)
   5 Cs    15.125000    9.075000   10.000000    ( 0.0000,  0.0000,  0.0000)
   6 Cs     3.025000   15.125000   10.000000    ( 0.0000,  0.0000,  0.0000)
   7 Cs     9.075000   15.125000   10.000000    ( 0.0000,  0.0000,  0.0000)
   8 Cs    15.125000   15.125000   10.000000    ( 0.0000,  0.0000,  0.0000)
   9 Cs     0.000000    0.000000   13.025000    ( 0.0000,  0.0000,  0.0000)
  10 Cs     6.050000    0.000000   13.025000    ( 0.0000,  0.0000,  0.0000)
  11 Cs    12.100000    0.000000   13.025000    ( 0.0000,  0.0000,  0.0000)
  12 Cs     0.000000    6.050000   13.025000    ( 0.0000,  0.0000,  0.0000)
  13 Cs     6.050000    6.050000   13.025000    ( 0.0000,  0.0000,  0.0000)
  14 Cs    12.100000    6.050000   13.025000    ( 0.0000,  0.0000,  0.0000)
  15 Cs     0.000000   12.100000   13.025000    ( 0.0000,  0.0000,  0.0000)
  16 Cs     6.050000   12.100000   13.025000    ( 0.0000,  0.0000,  0.0000)
  17 Cs    12.100000   12.100000   13.025000    ( 0.0000,  0.0000,  0.0000)
  18 Cs     3.025000    3.025000   16.050000    ( 0.0000,  0.0000,  0.0000)
  19 Cs     9.075000    3.025000   16.050000    ( 0.0000,  0.0000,  0.0000)
  20 Cs    15.125000    3.025000   16.050000    ( 0.0000,  0.0000,  0.0000)
  21 Cs     3.025000    9.075000   16.050000    ( 0.0000,  0.0000,  0.0000)
  22 Cs     9.075000    9.075000   16.050000    ( 0.0000,  0.0000,  0.0000)
  23 Cs    15.125000    9.075000   16.050000    ( 0.0000,  0.0000,  0.0000)
  24 Cs     3.025000   15.125000   16.050000    ( 0.0000,  0.0000,  0.0000)
  25 Cs     9.075000   15.125000   16.050000    ( 0.0000,  0.0000,  0.0000)
  26 Cs    15.125000   15.125000   16.050000    ( 0.0000,  0.0000,  0.0000)
  27 Cs     0.000000    0.000000   19.075000    ( 0.0000,  0.0000,  0.0000)
  28 Cs     6.050000    0.000000   19.075000    ( 0.0000,  0.0000,  0.0000)
  29 Cs    12.100000    0.000000   19.075000    ( 0.0000,  0.0000,  0.0000)
  30 Cs     0.000000    6.050000   19.075000    ( 0.0000,  0.0000,  0.0000)
  31 Cs     6.050000    6.050000   19.075000    ( 0.0000,  0.0000,  0.0000)
  32 Cs    12.100000    6.050000   19.075000    ( 0.0000,  0.0000,  0.0000)
  33 Cs     0.000000   12.100000   19.075000    ( 0.0000,  0.0000,  0.0000)
  34 Cs     6.050000   12.100000   19.075000    ( 0.0000,  0.0000,  0.0000)
  35 Cs    12.100000   12.100000   19.075000    ( 0.0000,  0.0000,  0.0000)

Unit cell:
           periodic     x           y           z      points  spacing
  1. axis:    yes   18.150000    0.000000    0.000000   112     0.1621
  2. axis:    yes    0.000000   18.150000    0.000000   112     0.1621
  3. axis:    no     0.000000    0.000000   29.075000   180     0.1615

  Lengths:  18.150000  18.150000  29.075000
  Angles:   90.000000  90.000000  90.000000

Effective grid spacing dv^(1/3) = 0.1619

     iter     time        total  log10-change:
                         energy  eigst   dens
iter:   1 03:28:18 -6607.731479
iter:   2 03:40:32 -6610.304385  +0.23  -1.06
iter:   3 03:53:05 -6612.159752  -0.11  -1.07
iter:   4 04:05:10 -6601.773064  -0.21  -1.06
Writing to output.gpw (mode='')

iter:   5 04:17:17 -6602.436455  -0.59  -1.56
iter:   6 04:29:37 -6602.565235  -0.78  -1.58
iter:   7 04:41:59 -6603.244438  -1.06  -1.43
iter:   8 04:54:25 -6602.842455  -1.10  -1.65
iter:   9 05:06:31 -6602.946931  -1.69  -1.65
Writing to output.gpw (mode='')

iter:  10 05:18:52 -6603.038618  -1.59  -1.65
iter:  11 05:31:20 -6603.042742c -1.74  -1.94
iter:  12 05:43:33 -6603.058351c -1.98  -2.10
iter:  13 05:56:00 -6603.075573c -2.28  -1.89
iter:  14 06:08:37 -6603.114236c -2.22  -2.09
Writing to output.gpw (mode='')

iter:  15 06:20:59 -6603.111078c -2.38  -2.33
iter:  16 06:33:02 -6603.141021c -2.53  -2.17
iter:  17 06:45:15 -6603.152311c -2.42  -2.29
iter:  18 06:57:19 -6603.161676c -2.66  -2.27
iter:  19 07:09:41 -6603.140737c -2.79  -2.31
Writing to output.gpw (mode='')

iter:  20 07:22:12 -6603.169592c -2.77  -2.23
iter:  21 07:34:27 -6603.166835c -3.08  -2.33
iter:  22 07:46:34 -6603.177391c -3.42  -2.33
iter:  23 07:59:04 -6603.173945c -3.05  -2.33
iter:  24 08:11:20 -6603.175379c -3.02  -2.33
Writing to output.gpw (mode='')

iter:  25 08:23:49 -6603.159296c -2.86  -2.28
iter:  26 08:36:16 -6603.161171c -3.09  -2.38
iter:  27 08:48:35 -6603.159640c -3.14  -2.54
iter:  28 09:00:51 -6603.155295c -3.66  -2.59
iter:  29 09:13:32 -6603.157446c -3.62  -2.66
Writing to output.gpw (mode='')

iter:  30 09:26:07 -6603.157817c -3.64  -2.85
iter:  31 09:38:28 -6603.157641c -4.16  -2.88
iter:  32 09:51:00 -6603.159761c -3.98  -2.94
iter:  33 10:03:32 -6603.162083c -3.75  -3.05
iter:  34 10:15:58 -6603.161361c -3.93  -3.15
Writing to output.gpw (mode='')

iter:  35 10:28:25 -6603.161585c -4.33  -3.31
iter:  36 10:40:49 -6603.161662c -4.33  -3.37
iter:  37 10:53:21 -6603.161594c -4.46  -3.36
iter:  38 11:05:48 -6603.162922c -4.15  -3.31
iter:  39 11:18:08 -6603.162975c -4.29  -3.65
Writing to output.gpw (mode='')

iter:  40 11:30:47 -6603.163017c -4.58  -3.66
iter:  41 11:42:57 -6603.163094c -4.57  -3.67
iter:  42 11:55:27 -6603.163220c -4.80  -3.72
iter:  43 12:07:56 -6603.163237c -4.67  -3.84
iter:  44 12:20:27 -6603.163251c -5.12  -3.83
Writing to output.gpw (mode='')

iter:  45 12:33:34 -6603.163322c -4.93  -3.82
iter:  46 12:45:51 -6603.163358c -5.24  -3.79
iter:  47 12:58:06 -6603.163364c -5.08  -3.80
iter:  48 13:10:35 -6603.163368c -5.30  -3.78
iter:  49 13:23:08 -6603.163376c -5.39  -3.77
Writing to output.gpw (mode='')

iter:  50 13:34:19 -6603.163384c -5.56  -3.80
iter:  51 13:46:35 -6603.163463c -5.50  -3.80
iter:  52 13:58:53 -6603.163493c -5.63  -3.82
iter:  53 14:10:49 -6603.163513c -5.68  -3.83
iter:  54 14:22:36 -6603.163514c -5.71  -3.83
Writing to output.gpw (mode='')

iter:  55 14:34:48 -6603.163544c -5.43  -3.84
iter:  56 14:46:54 -6603.163537c -5.64  -4.12c
iter:  57 14:58:55 -6603.163532c -5.69  -4.18c
iter:  58 15:11:06 -6603.163532c -5.82  -4.20c
iter:  59 15:23:28 -6603.163552c -5.89  -4.19c
Writing to output.gpw (mode='')

iter:  60 15:35:40 -6603.163547c -5.94  -4.20c
iter:  61 15:47:40 -6603.163554c -6.16  -4.19c
iter:  62 15:59:52 -6603.163555c -6.10  -4.16c
iter:  63 16:12:24 -6603.163552c -6.22  -4.21c
iter:  64 16:24:58 -6603.163538c -6.03  -4.20c
Writing to output.gpw (mode='')

iter:  65 16:37:28 -6603.163536c -6.30  -4.17c
iter:  66 16:49:56 -6603.163551c -6.56  -4.21c
iter:  67 17:02:14 -6603.163549c -6.57  -4.21c
iter:  68 17:14:45 -6603.163547c -6.76  -4.21c
iter:  69 17:26:54 -6603.163552c -6.56  -4.21c
Writing to output.gpw (mode='')

iter:  70 17:39:13 -6603.163582c -6.34  -4.29c
iter:  71 17:51:46 -6603.163621c -6.23  -4.46c
iter:  72 18:04:14 -6603.163620c -6.29  -4.59c
iter:  73 18:16:31 -6603.163617c -6.75  -4.61c
iter:  74 18:28:43 -6603.163618c -6.70  -4.60c
Writing to output.gpw (mode='')

iter:  75 18:40:39 -6603.163615c -6.95  -4.59c
iter:  76 18:53:08 -6603.163615c -6.93  -4.57c
iter:  77 19:05:23 -6603.163621c -7.02  -4.56c
iter:  78 19:17:19 -6603.163617c -6.93  -4.57c
iter:  79 19:29:36 -6603.163625c -7.18  -4.62c
Writing to output.gpw (mode='')

iter:  80 19:41:52 -6603.163628c -7.14  -4.64c
iter:  81 19:53:50 -6603.163634c -7.20  -4.58c
iter:  82 20:05:51 -6603.163635c -7.27  -4.68c
iter:  83 20:18:18 -6603.163638c -7.32  -4.68c
iter:  84 20:30:41 -6603.163632c -6.90  -4.72c
Writing to output.gpw (mode='')

iter:  85 20:43:17 -6603.163632c -7.33  -4.91c
iter:  86 20:55:28 -6603.163633c -7.44c -4.94c

Converged after 86 iterations.

Dipole moment: (-52.817053, -52.817053, 0.000000) |e|*Ang

Energy contributions relative to reference atoms: (reference = -7624802.753492)

Kinetic:       +190.844720
Potential:     -172.175911
External:        +0.000000
XC:            -6622.756383
Entropy (-ST):   -0.538292
Local:           +1.193087
--------------------------
Free energy:   -6603.432779
Extrapolated:  -6603.163633

Dipole-layer corrected work functions: 2.227472, 2.227472 eV

 Band  Eigenvalues  Occupancy
    0    -26.48433    2.00000
    1    -26.48432    2.00000
    2    -26.48415    2.00000
    3    -26.48415    2.00000
    4    -26.48411    2.00000
    5    -26.48410    2.00000
    6    -26.48397    2.00000
    7    -26.48397    2.00000
    8    -26.48391    2.00000
    9    -26.48391    2.00000
   10    -26.48391    2.00000
   11    -26.48390    2.00000
   12    -26.48376    2.00000
   13    -26.48376    2.00000
   14    -26.48372    2.00000
   15    -26.48372    2.00000
   16    -26.48357    2.00000
   17    -26.48357    2.00000
   18    -26.25196    2.00000
   19    -26.25097    2.00000
   20    -26.25088    2.00000
   21    -26.25012    2.00000
   22    -26.24931    2.00000
   23    -26.24922    2.00000
   24    -26.24889    2.00000
   25    -26.24880    2.00000
   26    -26.24826    2.00000
   27    -26.24780    2.00000
   28    -26.24762    2.00000
   29    -26.24757    2.00000
   30    -26.24753    2.00000
   31    -26.24748    2.00000
   32    -26.24665    2.00000
   33    -26.24623    2.00000
   34    -26.24614    2.00000
   35    -26.24549    2.00000
   36    -13.36276    2.00000
   37    -13.36273    2.00000
   38    -13.36259    2.00000
   39    -13.36255    2.00000
   40    -13.36220    2.00000
   41    -13.36157    2.00000
   42    -13.36151    2.00000
   43    -13.36107    2.00000
   44    -13.36006    2.00000
   45    -13.36004    2.00000
   46    -13.36000    2.00000
   47    -13.35991    2.00000
   48    -13.35987    2.00000
   49    -13.35917    2.00000
   50    -13.35877    2.00000
   51    -13.35872    2.00000
   52    -13.35817    2.00000
   53    -13.35816    2.00000
   54    -13.35811    2.00000
   55    -13.35769    2.00000
   56    -13.35766    2.00000
   57    -13.35761    2.00000
   58    -13.35757    2.00000
   59    -13.35710    2.00000
   60    -13.35704    2.00000
   61    -13.35695    2.00000
   62    -13.35690    2.00000
   63    -13.35564    2.00000
   64    -13.35409    2.00000
   65    -13.35350    2.00000
   66    -13.34790    2.00000
   67    -13.34784    2.00000
   68    -13.34721    2.00000
   69    -13.34715    2.00000
   70    -13.34715    2.00000
   71    -13.34580    2.00000
   72    -13.34551    2.00000
   73    -13.34497    2.00000
   74    -13.34428    2.00000
   75    -13.34421    2.00000
   76    -13.34388    2.00000
   77    -13.34381    2.00000
   78    -13.33692    2.00000
   79    -13.33635    2.00000
   80    -13.33625    2.00000
   81    -13.33604    2.00000
   82    -13.33463    2.00000
   83    -13.33457    2.00000
   84    -13.33424    2.00000
   85    -13.33418    2.00000
   86    -13.33252    2.00000
   87    -13.33245    2.00000
   88    -13.33236    2.00000
   89    -13.33230    2.00000
   90    -13.16337    2.00000
   91    -13.16289    2.00000
   92    -13.16279    2.00000
   93    -13.16042    2.00000
   94    -13.16039    2.00000
   95    -13.16013    2.00000
   96    -13.15998    2.00000
   97    -13.15994    2.00000
   98    -13.15986    2.00000
   99    -13.15844    2.00000
  100    -13.15843    2.00000
  101    -13.15655    2.00000
  102    -13.15650    2.00000
  103    -13.15560    2.00000
  104    -13.14980    2.00000
  105    -13.14975    2.00000
  106    -13.14792    2.00000
  107    -13.13596    2.00000
  108    -13.13582    2.00000
  109    -13.13538    2.00000
  110    -13.12891    2.00000
  111    -13.12885    2.00000
  112    -13.12846    2.00000
  113    -13.12550    2.00000
  114    -13.12546    2.00000
  115    -13.12284    2.00000
  116    -13.11725    2.00000
  117    -13.11724    2.00000
  118    -13.11353    2.00000
  119    -13.11348    2.00000
  120    -13.10417    2.00000
  121    -13.10417    2.00000
  122    -13.10383    2.00000
  123    -13.09833    2.00000
  124    -13.09407    2.00000
  125    -13.09398    2.00000
  126    -13.09206    2.00000
  127    -13.09200    2.00000
  128    -13.09089    2.00000
  129    -13.09080    2.00000
  130    -13.09062    2.00000
  131    -13.09035    2.00000
  132    -13.09027    2.00000
  133    -13.09024    2.00000
  134    -13.08984    2.00000
  135    -13.08973    2.00000
  136    -13.08961    2.00000
  137    -13.08938    2.00000
  138    -13.08937    2.00000
  139    -13.08707    2.00000
  140    -13.08705    2.00000
  141    -13.08664    2.00000
  142    -13.08576    2.00000
  143    -13.08282    2.00000
  144     -3.69532    2.00000
  145     -3.40140    2.00000
  146     -3.40139    2.00000
  147     -3.14824    2.00000
  148     -3.12495    2.00000
  149     -2.88908    2.00000
  150     -2.88908    2.00000
  151     -2.86962    1.99999
  152     -2.86960    1.99999
  153     -2.63268    1.99940
  154     -2.63267    1.99940
  155     -2.62449    1.99929
  156     -2.44896    1.97645
  157     -2.44896    1.97644
  158     -2.41153    1.95085
  159     -2.25929    1.30789
  160     -2.21564    0.88220
  161     -2.21564    0.88219
  162     -2.21198    0.84631
  163     -2.21198    0.84628
  164     -2.17778    0.54029
  165     -2.17778    0.54029
  166     -2.06870    0.08020
  167     -2.06870    0.08020
  168     -2.02645    0.03526
  169     -2.02644    0.03525
  170     -1.97118    0.01181
  171     -1.95764    0.00902
  172     -1.81430    0.00052
  173     -1.75005    0.00014
  174     -1.75005    0.00014
  175     -1.74817    0.00014
  176     -1.68471    0.00004
  177     -1.68470    0.00004
  178     -1.46800    0.00000
  179     -1.40774    0.00000

Fermi level: -2.22747

Gap: 0.044 eV
Transition (v -> c):
  (s=0, k=0, n=159, [0.25, 0.25, 0.00]) -> (s=0, k=0, n=160, [0.25, 0.25, 0.00])
Writing to output.gpw (mode='')


Forces in eV/Ang:
  0 Cs    0.00121    0.00121   -0.08614
  1 Cs    0.00000   -0.02867   -0.06451
  2 Cs   -0.00121    0.00121   -0.08614
  3 Cs   -0.02867    0.00000   -0.06451
  4 Cs    0.00000    0.00000   -0.11522
  5 Cs    0.02867    0.00000   -0.06451
  6 Cs    0.00121   -0.00121   -0.08614
  7 Cs    0.00000    0.02867   -0.06451
  8 Cs   -0.00121   -0.00121   -0.08614
  9 Cs    0.00000    0.00000    0.01521
 10 Cs   -0.00924    0.00000    0.02502
 11 Cs    0.00924    0.00000    0.02502
 12 Cs    0.00000   -0.00924    0.02502
 13 Cs    0.01587    0.01587    0.01374
 14 Cs   -0.01587    0.01587    0.01374
 15 Cs    0.00000    0.00924    0.02502
 16 Cs    0.01587   -0.01587    0.01374
 17 Cs   -0.01587   -0.01587    0.01374
 18 Cs   -0.01587   -0.01587   -0.01374
 19 Cs    0.00000    0.00924   -0.02502
 20 Cs    0.01587   -0.01587   -0.01374
 21 Cs    0.00924    0.00000   -0.02502
 22 Cs    0.00000    0.00000   -0.01521
 23 Cs   -0.00924    0.00000   -0.02502
 24 Cs   -0.01587    0.01587   -0.01374
 25 Cs    0.00000   -0.00924   -0.02502
 26 Cs    0.01587    0.01587   -0.01374
 27 Cs    0.00000    0.00000    0.11522
 28 Cs    0.02867    0.00000    0.06451
 29 Cs   -0.02867    0.00000    0.06451
 30 Cs    0.00000    0.02867    0.06451
 31 Cs   -0.00121   -0.00121    0.08614
 32 Cs    0.00121   -0.00121    0.08614
 33 Cs    0.00000   -0.02867    0.06451
 34 Cs   -0.00121    0.00121    0.08614
 35 Cs    0.00121    0.00121    0.08614

System changes: positions 

Initializing position-dependent things.

Density initialized from wave functions
            .--------------------------------------------.  
           /|                                            |  
          / |                                            |  
         /  |                                            |  
        /   |                                            |  
       /    |                                            |  
      /     |                                            |  
     /      |                                            |  
    /       |                                            |  
   /        |                                            |  
  /         |                                            |  
 *          |                                            |  
 |          |                                            |  
 |          |                                            |  
 |          |                                            |  
 |          |                                            |  
 |      Cs  |          Cs             Cs                 |  
 |          |                                            |  
 |          |     Cs             Cs             Cs       |  
 |          |                                            |  
 |   Cs     |       Cs             Cs                    |  
 |          |                                            |  
 |          | Cs             Cs             Cs           |  
 Cs         |   Cs             Cs                        |  
 |      Cs  |          Cs             Cs                 |  
 |        Cs|     Cs     Cs      Cs     Cs      Cs       |  
 |          |                                            |  
 |   Cs     |       Cs             Cs                    |  
 |          |                                            |  
 |          | Cs             Cs             Cs           |  
 |          |                                            |  
 Cs         |   Cs             Cs                        |  
 |          |                                            |  
 |        Cs|            Cs             Cs               |  
 |          |                                            |  
 |          |                                            |  
 |          .--------------------------------------------.  
 |         /                                            /   
 |        /                                            /    
 |       /                                            /     
 |      /                                            /      
 |     /                                            /       
 |    /                                            /        
 |   /                                            /         
 |  /                                            /          
 | /                                            /           
 |/                                            /            
 *--------------------------------------------*             

Positions:
   0 Cs     3.025017    3.025017    9.998769    ( 0.0000,  0.0000,  0.0000)
   1 Cs     9.075000    3.024590    9.999078    ( 0.0000,  0.0000,  0.0000)
   2 Cs    15.124983    3.025017    9.998769    ( 0.0000,  0.0000,  0.0000)
   3 Cs     3.024590    9.075000    9.999078    ( 0.0000,  0.0000,  0.0000)
   4 Cs     9.075000    9.075000    9.998354    ( 0.0000,  0.0000,  0.0000)
   5 Cs    15.125410    9.075000    9.999078    ( 0.0000,  0.0000,  0.0000)
   6 Cs     3.025017   15.124983    9.998769    ( 0.0000,  0.0000,  0.0000)
   7 Cs     9.075000   15.125410    9.999078    ( 0.0000,  0.0000,  0.0000)
   8 Cs    15.124983   15.124983    9.998769    ( 0.0000,  0.0000,  0.0000)
   9 Cs     0.000000    0.000000   13.025217    ( 0.0000,  0.0000,  0.0000)
  10 Cs     6.049868    0.000000   13.025357    ( 0.0000,  0.0000,  0.0000)
  11 Cs    12.100132    0.000000   13.025357    ( 0.0000,  0.0000,  0.0000)
  12 Cs     0.000000    6.049868   13.025357    ( 0.0000,  0.0000,  0.0000)
  13 Cs     6.050227    6.050227   13.025196    ( 0.0000,  0.0000,  0.0000)
  14 Cs    12.099773    6.050227   13.025196    ( 0.0000,  0.0000,  0.0000)
  15 Cs     0.000000   12.100132   13.025357    ( 0.0000,  0.0000,  0.0000)
  16 Cs     6.050227   12.099773   13.025196    ( 0.0000,  0.0000,  0.0000)
  17 Cs    12.099773   12.099773   13.025196    ( 0.0000,  0.0000,  0.0000)
  18 Cs     3.024773    3.024773   16.049804    ( 0.0000,  0.0000,  0.0000)
  19 Cs     9.075000    3.025132   16.049643    ( 0.0000,  0.0000,  0.0000)
  20 Cs    15.125227    3.024773   16.049804    ( 0.0000,  0.0000,  0.0000)
  21 Cs     3.025132    9.075000   16.049643    ( 0.0000,  0.0000,  0.0000)
  22 Cs     9.075000    9.075000   16.049783    ( 0.0000,  0.0000,  0.0000)
  23 Cs    15.124868    9.075000   16.049643    ( 0.0000,  0.0000,  0.0000)
  24 Cs     3.024773   15.125227   16.049804    ( 0.0000,  0.0000,  0.0000)
  25 Cs     9.075000   15.124868   16.049643    ( 0.0000,  0.0000,  0.0000)
  26 Cs    15.125227   15.125227   16.049804    ( 0.0000,  0.0000,  0.0000)
  27 Cs     0.000000    0.000000   19.076646    ( 0.0000,  0.0000,  0.0000)
  28 Cs     6.050410    0.000000   19.075922    ( 0.0000,  0.0000,  0.0000)
  29 Cs    12.099590    0.000000   19.075922    ( 0.0000,  0.0000,  0.0000)
  30 Cs     0.000000    6.050410   19.075922    ( 0.0000,  0.0000,  0.0000)
  31 Cs     6.049983    6.049983   19.076231    ( 0.0000,  0.0000,  0.0000)
  32 Cs    12.100017    6.049983   19.076231    ( 0.0000,  0.0000,  0.0000)
  33 Cs     0.000000   12.099590   19.075922    ( 0.0000,  0.0000,  0.0000)
  34 Cs     6.049983   12.100017   19.076231    ( 0.0000,  0.0000,  0.0000)
  35 Cs    12.100017   12.100017   19.076231    ( 0.0000,  0.0000,  0.0000)

Unit cell:
           periodic     x           y           z      points  spacing
  1. axis:    yes   18.150000    0.000000    0.000000   112     0.1621
  2. axis:    yes    0.000000   18.150000    0.000000   112     0.1621
  3. axis:    no     0.000000    0.000000   29.075000   180     0.1615

  Lengths:  18.150000  18.150000  29.075000
  Angles:   90.000000  90.000000  90.000000

Effective grid spacing dv^(1/3) = 0.1619

     iter     time        total  log10-change:
                         energy  eigst   dens
iter:   1 21:08:37 -6603.165629  -4.76
iter:   2 21:20:50 -6603.165633  -5.76  -4.55c
iter:   3 21:33:06 -6603.165637c -6.26  -4.52c
iter:   4 21:45:16 -6603.165623c -6.39  -4.42c
Writing to output.gpw (mode='')

iter:   5 21:57:25 -6603.165624c -6.73  -4.75c
iter:   6 22:09:58 -6603.165625c -7.19  -4.75c
iter:   7 22:22:10 -6603.165626c -7.07  -4.74c
iter:   8 22:34:37 -6603.165625c -7.32  -4.90c
iter:   9 22:46:55 -6603.165624c -7.37  -4.95c
Writing to output.gpw (mode='')

iter:  10 22:59:15 -6603.165626c -7.21  -4.81c
iter:  11 23:12:01 -6603.165627c -7.58c -5.05c

Converged after 11 iterations.

Dipole moment: (-52.816970, -52.816970, 0.000000) |e|*Ang

Energy contributions relative to reference atoms: (reference = -7624802.753492)

Kinetic:       +190.753587
Potential:     -172.097306
External:        +0.000000
XC:            -6622.741690
Entropy (-ST):   -0.538243
Local:           +1.188904
--------------------------
Free energy:   -6603.434748
Extrapolated:  -6603.165627

Dipole-layer corrected work functions: 2.227476, 2.227476 eV

 Band  Eigenvalues  Occupancy
    0    -26.48441    2.00000
    1    -26.48441    2.00000
    2    -26.48426    2.00000
    3    -26.48426    2.00000
    4    -26.48417    2.00000
    5    -26.48417    2.00000
    6    -26.48408    2.00000
    7    -26.48408    2.00000
    8    -26.48397    2.00000
    9    -26.48397    2.00000
   10    -26.48396    2.00000
   11    -26.48396    2.00000
   12    -26.48385    2.00000
   13    -26.48385    2.00000
   14    -26.48377    2.00000
   15    -26.48377    2.00000
   16    -26.48364    2.00000
   17    -26.48363    2.00000
   18    -26.25202    2.00000
   19    -26.25103    2.00000
   20    -26.25095    2.00000
   21    -26.25019    2.00000
   22    -26.24937    2.00000
   23    -26.24929    2.00000
   24    -26.24896    2.00000
   25    -26.24887    2.00000
   26    -26.24833    2.00000
   27    -26.24786    2.00000
   28    -26.24768    2.00000
   29    -26.24763    2.00000
   30    -26.24760    2.00000
   31    -26.24755    2.00000
   32    -26.24672    2.00000
   33    -26.24629    2.00000
   34    -26.24622    2.00000
   35    -26.24555    2.00000
   36    -13.36280    2.00000
   37    -13.36279    2.00000
   38    -13.36264    2.00000
   39    -13.36263    2.00000
   40    -13.36227    2.00000
   41    -13.36160    2.00000
   42    -13.36158    2.00000
   43    -13.36113    2.00000
   44    -13.36010    2.00000
   45    -13.36010    2.00000
   46    -13.36009    2.00000
   47    -13.35996    2.00000
   48    -13.35994    2.00000
   49    -13.35923    2.00000
   50    -13.35882    2.00000
   51    -13.35880    2.00000
   52    -13.35822    2.00000
   53    -13.35820    2.00000
   54    -13.35815    2.00000
   55    -13.35773    2.00000
   56    -13.35770    2.00000
   57    -13.35765    2.00000
   58    -13.35760    2.00000
   59    -13.35713    2.00000
   60    -13.35707    2.00000
   61    -13.35699    2.00000
   62    -13.35693    2.00000
   63    -13.35567    2.00000
   64    -13.35416    2.00000
   65    -13.35356    2.00000
   66    -13.34794    2.00000
   67    -13.34788    2.00000
   68    -13.34725    2.00000
   69    -13.34719    2.00000
   70    -13.34718    2.00000
   71    -13.34584    2.00000
   72    -13.34555    2.00000
   73    -13.34501    2.00000
   74    -13.34432    2.00000
   75    -13.34426    2.00000
   76    -13.34392    2.00000
   77    -13.34386    2.00000
   78    -13.33696    2.00000
   79    -13.33639    2.00000
   80    -13.33629    2.00000
   81    -13.33608    2.00000
   82    -13.33467    2.00000
   83    -13.33461    2.00000
   84    -13.33428    2.00000
   85    -13.33423    2.00000
   86    -13.33257    2.00000
   87    -13.33251    2.00000
   88    -13.33241    2.00000
   89    -13.33235    2.00000
   90    -13.16347    2.00000
   91    -13.16298    2.00000
   92    -13.16286    2.00000
   93    -13.16051    2.00000
   94    -13.16047    2.00000
   95    -13.16024    2.00000
   96    -13.16005    2.00000
   97    -13.16004    2.00000
   98    -13.15993    2.00000
   99    -13.15854    2.00000
  100    -13.15852    2.00000
  101    -13.15662    2.00000
  102    -13.15655    2.00000
  103    -13.15565    2.00000
  104    -13.14990    2.00000
  105    -13.14983    2.00000
  106    -13.14801    2.00000
  107    -13.13604    2.00000
  108    -13.13589    2.00000
  109    -13.13547    2.00000
  110    -13.12899    2.00000
  111    -13.12893    2.00000
  112    -13.12851    2.00000
  113    -13.12557    2.00000
  114    -13.12552    2.00000
  115    -13.12289    2.00000
  116    -13.11732    2.00000
  117    -13.11730    2.00000
  118    -13.11359    2.00000
  119    -13.11355    2.00000
  120    -13.10424    2.00000
  121    -13.10422    2.00000
  122    -13.10388    2.00000
  123    -13.09837    2.00000
  124    -13.09412    2.00000
  125    -13.09403    2.00000
  126    -13.09210    2.00000
  127    -13.09205    2.00000
  128    -13.09093    2.00000
  129    -13.09084    2.00000
  130    -13.09066    2.00000
  131    -13.09040    2.00000
  132    -13.09031    2.00000
  133    -13.09028    2.00000
  134    -13.08987    2.00000
  135    -13.08977    2.00000
  136    -13.08964    2.00000
  137    -13.08942    2.00000
  138    -13.08942    2.00000
  139    -13.08711    2.00000
  140    -13.08711    2.00000
  141    -13.08669    2.00000
  142    -13.08581    2.00000
  143    -13.08287    2.00000
  144     -3.69520    2.00000
  145     -3.40129    2.00000
  146     -3.40129    2.00000
  147     -3.14816    2.00000
  148     -3.12485    2.00000
  149     -2.88904    2.00000
  150     -2.88901    2.00000
  151     -2.86952    1.99999
  152     -2.86952    1.99999
  153     -2.63261    1.99939
  154     -2.63257    1.99939
  155     -2.62446    1.99929
  156     -2.44892    1.97642
  157     -2.44891    1.97642
  158     -2.41180    1.95111
  159     -2.25921    1.30705
  160     -2.21554    0.88117
  161     -2.21553    0.88112
  162     -2.21216    0.84798
  163     -2.21215    0.84788
  164     -2.17779    0.54035
  165     -2.17774    0.53998
  166     -2.06865    0.08012
  167     -2.06863    0.08009
  168     -2.02636    0.03519
  169     -2.02635    0.03519
  170     -1.97131    0.01184
  171     -1.95755    0.00901
  172     -1.81452    0.00052
  173     -1.75001    0.00014
  174     -1.74998    0.00014
  175     -1.74820    0.00014
  176     -1.68467    0.00004
  177     -1.68461    0.00004
  178     -1.48382    0.00000
  179     -1.40986    0.00000

Fermi level: -2.22748

Gap: 0.044 eV
Transition (v -> c):
  (s=0, k=0, n=159, [0.25, 0.25, 0.00]) -> (s=0, k=0, n=160, [0.25, 0.25, 0.00])
Writing to output.gpw (mode='')


Forces in eV/Ang:
  0 Cs    0.00163    0.00163   -0.08531
  1 Cs    0.00000   -0.02875   -0.06356
  2 Cs   -0.00163    0.00163   -0.08531
  3 Cs   -0.02875    0.00000   -0.06356
  4 Cs    0.00000    0.00000   -0.11694
  5 Cs    0.02875    0.00000   -0.06356
  6 Cs    0.00163   -0.00163   -0.08531
  7 Cs    0.00000    0.02875   -0.06356
  8 Cs   -0.00163   -0.00163   -0.08531
  9 Cs    0.00000    0.00000    0.01331
 10 Cs   -0.00767    0.00000    0.02346
 11 Cs    0.00767    0.00000    0.02346
 12 Cs    0.00000   -0.00767    0.02346
 13 Cs    0.01636    0.01636    0.01124
 14 Cs   -0.01636    0.01636    0.01124
 15 Cs    0.00000    0.00767    0.02346
 16 Cs    0.01636   -0.01636    0.01124
 17 Cs   -0.01636   -0.01636    0.01124
 18 Cs   -0.01636   -0.01636   -0.01124
 19 Cs    0.00000    0.00767   -0.02346
 20 Cs    0.01636   -0.01636   -0.01124
 21 Cs    0.00767    0.00000   -0.02346
 22 Cs    0.00000    0.00000   -0.01331
 23 Cs   -0.00767    0.00000   -0.02346
 24 Cs   -0.01636    0.01636   -0.01124
 25 Cs    0.00000   -0.00767   -0.02346
 26 Cs    0.01636    0.01636   -0.01124
 27 Cs    0.00000    0.00000    0.11694
 28 Cs    0.02875    0.00000    0.06356
 29 Cs   -0.02875    0.00000    0.06356
 30 Cs    0.00000    0.02875    0.06356
 31 Cs   -0.00163   -0.00163    0.08531
 32 Cs    0.00163   -0.00163    0.08531
 33 Cs    0.00000   -0.02875    0.06356
 34 Cs   -0.00163    0.00163    0.08531
 35 Cs    0.00163    0.00163    0.08531

System changes: positions 

Initializing position-dependent things.

Density initialized from wave functions
            .--------------------------------------------.  
           /|                                            |  
          / |                                            |  
         /  |                                            |  
        /   |                                            |  
       /    |                                            |  
      /     |                                            |  
     /      |                                            |  
    /       |                                            |  
   /        |                                            |  
  /         |                                            |  
 *          |                                            |  
 |          |                                            |  
 |          |                                            |  
 |          |                                            |  
 |          |                                            |  
 |      Cs  |          Cs             Cs                 |  
 |          |                                            |  
 |          |     Cs             Cs             Cs       |  
 |          |                                            |  
 |   Cs     |       Cs             Cs                    |  
 |          |                                            |  
 |          | Cs             Cs             Cs           |  
 Cs         |   Cs             Cs                        |  
 |      Cs  |          Cs             Cs                 |  
 |        Cs|     Cs     Cs      Cs     Cs      Cs       |  
 |          |                                            |  
 |   Cs     |       Cs             Cs                    |  
 |          |                                            |  
 |          | Cs             Cs             Cs           |  
 |          |                                            |  
 Cs         |   Cs             Cs                        |  
 |          |                                            |  
 |        Cs|            Cs             Cs               |  
 |          |                                            |  
 |          |                                            |  
 |          .--------------------------------------------.  
 |         /                                            /   
 |        /                                            /    
 |       /                                            /     
 |      /                                            /      
 |     /                                            /       
 |    /                                            /        
 |   /                                            /         
 |  /                                            /          
 | /                                            /           
 |/                                            /            
 *--------------------------------------------*             

Positions:
   0 Cs     3.025154    3.025154    9.991460    ( 0.0000,  0.0000,  0.0000)
   1 Cs     9.075000    3.022129    9.993630    ( 0.0000,  0.0000,  0.0000)
   2 Cs    15.124846    3.025154    9.991460    ( 0.0000,  0.0000,  0.0000)
   3 Cs     3.022129    9.075000    9.993630    ( 0.0000,  0.0000,  0.0000)
   4 Cs     9.075000    9.075000    9.988354    ( 0.0000,  0.0000,  0.0000)
   5 Cs    15.127871    9.075000    9.993630    ( 0.0000,  0.0000,  0.0000)
   6 Cs     3.025154   15.124846    9.991460    ( 0.0000,  0.0000,  0.0000)
   7 Cs     9.075000   15.127871    9.993630    ( 0.0000,  0.0000,  0.0000)
   8 Cs    15.124846   15.124846    9.991460    ( 0.0000,  0.0000,  0.0000)
   9 Cs    -0.000000    0.000000   13.026370    ( 0.0000,  0.0000,  0.0000)
  10 Cs     6.049201    0.000000   13.027377    ( 0.0000,  0.0000,  0.0000)
  11 Cs    12.100799   -0.000000   13.027377    ( 0.0000,  0.0000,  0.0000)
  12 Cs     0.000000    6.049201   13.027377    ( 0.0000,  0.0000,  0.0000)
  13 Cs     6.051624    6.051624   13.026176    ( 0.0000,  0.0000,  0.0000)
  14 Cs    12.098376    6.051624   13.026176    ( 0.0000,  0.0000,  0.0000)
  15 Cs     0.000000   12.100799   13.027377    ( 0.0000,  0.0000,  0.0000)
  16 Cs     6.051624   12.098376   13.026176    ( 0.0000,  0.0000,  0.0000)
  17 Cs    12.098376   12.098376   13.026176    ( 0.0000,  0.0000,  0.0000)
  18 Cs     3.023376    3.023376   16.048824    ( 0.0000,  0.0000,  0.0000)
  19 Cs     9.075000    3.025799   16.047623    ( 0.0000,  0.0000,  0.0000)
  20 Cs    15.126624    3.023376   16.048824    ( 0.0000,  0.0000,  0.0000)
  21 Cs     3.025799    9.075000   16.047623    ( 0.0000,  0.0000,  0.0000)
  22 Cs     9.075000    9.075000   16.048630    ( 0.0000,  0.0000,  0.0000)
  23 Cs    15.124201    9.075000   16.047623    ( 0.0000,  0.0000,  0.0000)
  24 Cs     3.023376   15.126624   16.048824    ( 0.0000,  0.0000,  0.0000)
  25 Cs     9.075000   15.124201   16.047623    ( 0.0000,  0.0000,  0.0000)
  26 Cs    15.126624   15.126624   16.048824    ( 0.0000,  0.0000,  0.0000)
  27 Cs     0.000000    0.000000   19.086646    ( 0.0000,  0.0000,  0.0000)
  28 Cs     6.052871    0.000000   19.081370    ( 0.0000,  0.0000,  0.0000)
  29 Cs    12.097129   -0.000000   19.081370    ( 0.0000,  0.0000,  0.0000)
  30 Cs     0.000000    6.052871   19.081370    ( 0.0000,  0.0000,  0.0000)
  31 Cs     6.049846    6.049846   19.083540    ( 0.0000,  0.0000,  0.0000)
  32 Cs    12.100154    6.049846   19.083540    ( 0.0000,  0.0000,  0.0000)
  33 Cs     0.000000   12.097129   19.081370    ( 0.0000,  0.0000,  0.0000)
  34 Cs     6.049846   12.100154   19.083540    ( 0.0000,  0.0000,  0.0000)
  35 Cs    12.100154   12.100154   19.083540    ( 0.0000,  0.0000,  0.0000)

Unit cell:
           periodic     x           y           z      points  spacing
  1. axis:    yes   18.150000    0.000000    0.000000   112     0.1621
  2. axis:    yes    0.000000   18.150000    0.000000   112     0.1621
  3. axis:    no     0.000000    0.000000   29.075000   180     0.1615

  Lengths:  18.150000  18.150000  29.075000
  Angles:   90.000000  90.000000  90.000000

Effective grid spacing dv^(1/3) = 0.1619

     iter     time        total  log10-change:
                         energy  eigst   dens
iter:   1 23:25:07 -6603.177049  -3.24
iter:   2 23:37:41 -6603.177180  -4.25  -3.83
iter:   3 23:50:15 -6603.177250c -4.79  -3.79
iter:   4 00:02:41 -6603.177119c -5.08  -3.71
Writing to output.gpw (mode='')

iter:   5 00:15:00 -6603.177126c -5.36  -4.13c
iter:   6 00:27:30 -6603.177132c -5.68  -4.09c
iter:   7 00:39:41 -6603.177118c -5.83  -4.02c
iter:   8 00:51:47 -6603.177108c -6.13  -4.07c
iter:   9 01:04:06 -6603.177120c -6.28  -4.14c
Writing to output.gpw (mode='')

iter:  10 01:16:37 -6603.177133c -6.33  -4.15c
iter:  11 01:29:07 -6603.177126c -6.55  -4.54c
iter:  12 01:41:42 -6603.177134c -6.71  -4.48c
iter:  13 01:53:54 -6603.177133c -6.79  -4.56c
iter:  14 02:06:19 -6603.177135c -6.83  -4.60c
Writing to output.gpw (mode='')

iter:  15 02:18:53 -6603.177132c -6.93  -4.75c
iter:  16 02:31:31 -6603.177129c -7.05  -4.68c
iter:  17 02:44:08 -6603.177134c -7.11  -4.77c
iter:  18 02:56:32 -6603.177126c -7.34  -4.76c
iter:  19 03:08:58 -6603.177134c -7.29  -4.73c
Writing to output.gpw (mode='')

iter:  20 03:21:20 -6603.177123c -7.51c -4.73c

Converged after 20 iterations.

Dipole moment: (-52.816386, -52.816386, 0.000000) |e|*Ang

Energy contributions relative to reference atoms: (reference = -7624802.753492)

Kinetic:       +190.477247
Potential:     -171.899437
External:        +0.000000
XC:            -6622.673256
Entropy (-ST):   -0.538045
Local:           +1.187345
--------------------------
Free energy:   -6603.446146
Extrapolated:  -6603.177123

Dipole-layer corrected work functions: 2.227244, 2.227244 eV

 Band  Eigenvalues  Occupancy
    0    -26.48446    2.00000
    1    -26.48445    2.00000
    2    -26.48425    2.00000
    3    -26.48425    2.00000
    4    -26.48411    2.00000
    5    -26.48411    2.00000
    6    -26.48404    2.00000
    7    -26.48404    2.00000
    8    -26.48392    2.00000
    9    -26.48392    2.00000
   10    -26.48391    2.00000
   11    -26.48391    2.00000
   12    -26.48380    2.00000
   13    -26.48380    2.00000
   14    -26.48373    2.00000
   15    -26.48372    2.00000
   16    -26.48359    2.00000
   17    -26.48359    2.00000
   18    -26.25229    2.00000
   19    -26.25137    2.00000
   20    -26.25113    2.00000
   21    -26.25044    2.00000
   22    -26.24968    2.00000
   23    -26.24946    2.00000
   24    -26.24929    2.00000
   25    -26.24902    2.00000
   26    -26.24855    2.00000
   27    -26.24810    2.00000
   28    -26.24795    2.00000
   29    -26.24794    2.00000
   30    -26.24776    2.00000
   31    -26.24768    2.00000
   32    -26.24692    2.00000
   33    -26.24656    2.00000
   34    -26.24634    2.00000
   35    -26.24574    2.00000
   36    -13.36264    2.00000
   37    -13.36261    2.00000
   38    -13.36247    2.00000
   39    -13.36247    2.00000
   40    -13.36214    2.00000
   41    -13.36141    2.00000
   42    -13.36140    2.00000
   43    -13.36098    2.00000
   44    -13.36000    2.00000
   45    -13.35997    2.00000
   46    -13.35996    2.00000
   47    -13.35976    2.00000
   48    -13.35976    2.00000
   49    -13.35911    2.00000
   50    -13.35866    2.00000
   51    -13.35865    2.00000
   52    -13.35800    2.00000
   53    -13.35797    2.00000
   54    -13.35795    2.00000
   55    -13.35750    2.00000
   56    -13.35749    2.00000
   57    -13.35744    2.00000
   58    -13.35732    2.00000
   59    -13.35687    2.00000
   60    -13.35685    2.00000
   61    -13.35675    2.00000
   62    -13.35672    2.00000
   63    -13.35543    2.00000
   64    -13.35403    2.00000
   65    -13.35342    2.00000
   66    -13.34771    2.00000
   67    -13.34767    2.00000
   68    -13.34702    2.00000
   69    -13.34698    2.00000
   70    -13.34694    2.00000
   71    -13.34562    2.00000
   72    -13.34536    2.00000
   73    -13.34484    2.00000
   74    -13.34412    2.00000
   75    -13.34408    2.00000
   76    -13.34372    2.00000
   77    -13.34369    2.00000
   78    -13.33675    2.00000
   79    -13.33620    2.00000
   80    -13.33610    2.00000
   81    -13.33588    2.00000
   82    -13.33448    2.00000
   83    -13.33444    2.00000
   84    -13.33410    2.00000
   85    -13.33406    2.00000
   86    -13.33240    2.00000
   87    -13.33236    2.00000
   88    -13.33225    2.00000
   89    -13.33221    2.00000
   90    -13.16385    2.00000
   91    -13.16333    2.00000
   92    -13.16313    2.00000
   93    -13.16087    2.00000
   94    -13.16081    2.00000
   95    -13.16066    2.00000
   96    -13.16045    2.00000
   97    -13.16030    2.00000
   98    -13.16025    2.00000
   99    -13.15897    2.00000
  100    -13.15884    2.00000
  101    -13.15686    2.00000
  102    -13.15683    2.00000
  103    -13.15584    2.00000
  104    -13.15033    2.00000
  105    -13.15009    2.00000
  106    -13.14841    2.00000
  107    -13.13635    2.00000
  108    -13.13619    2.00000
  109    -13.13583    2.00000
  110    -13.12934    2.00000
  111    -13.12917    2.00000
  112    -13.12868    2.00000
  113    -13.12584    2.00000
  114    -13.12580    2.00000
  115    -13.12305    2.00000
  116    -13.11759    2.00000
  117    -13.11750    2.00000
  118    -13.11380    2.00000
  119    -13.11377    2.00000
  120    -13.10442    2.00000
  121    -13.10439    2.00000
  122    -13.10404    2.00000
  123    -13.09850    2.00000
  124    -13.09422    2.00000
  125    -13.09418    2.00000
  126    -13.09221    2.00000
  127    -13.09218    2.00000
  128    -13.09100    2.00000
  129    -13.09096    2.00000
  130    -13.09077    2.00000
  131    -13.09054    2.00000
  132    -13.09046    2.00000
  133    -13.09034    2.00000
  134    -13.08990    2.00000
  135    -13.08985    2.00000
  136    -13.08972    2.00000
  137    -13.08960    2.00000
  138    -13.08947    2.00000
  139    -13.08731    2.00000
  140    -13.08714    2.00000
  141    -13.08683    2.00000
  142    -13.08593    2.00000
  143    -13.08300    2.00000
  144     -3.69424    2.00000
  145     -3.40050    2.00000
  146     -3.40032    2.00000
  147     -3.14753    2.00000
  148     -3.12402    2.00000
  149     -2.88866    2.00000
  150     -2.88833    2.00000
  151     -2.86881    1.99999
  152     -2.86865    1.99999
  153     -2.63193    1.99939
  154     -2.63166    1.99939
  155     -2.62406    1.99929
  156     -2.44858    1.97638
  157     -2.44839    1.97628
  158     -2.41308    1.95252
  159     -2.25836    1.30148
  160     -2.21471    0.87528
  161     -2.21469    0.87516
  162     -2.21288    0.85734
  163     -2.21282    0.85678
  164     -2.17766    0.54119
  165     -2.17732    0.53847
  166     -2.06828    0.07990
  167     -2.06814    0.07969
  168     -2.02558    0.03482
  169     -2.02547    0.03474
  170     -1.97175    0.01200
  171     -1.95668    0.00889
  172     -1.81531    0.00053
  173     -1.74965    0.00014
  174     -1.74949    0.00014
  175     -1.74801    0.00014
  176     -1.68413    0.00004
  177     -1.68364    0.00004
  178     -1.50591    0.00000
  179     -1.41234    0.00000

Fermi level: -2.22724

Gap: 0.044 eV
Transition (v -> c):
  (s=0, k=0, n=159, [0.25, 0.25, 0.00]) -> (s=0, k=0, n=160, [0.25, 0.25, 0.00])

Forces in eV/Ang:
  0 Cs    0.00516    0.00516   -0.08017
  1 Cs    0.00000   -0.02670   -0.06130
  2 Cs   -0.00516    0.00516   -0.08017
  3 Cs   -0.02670    0.00000   -0.06130
  4 Cs    0.00000    0.00000   -0.12108
  5 Cs    0.02670    0.00000   -0.06130
  6 Cs    0.00516   -0.00516   -0.08017
  7 Cs    0.00000    0.02670   -0.06130
  8 Cs   -0.00516   -0.00516   -0.08017
  9 Cs    0.00000    0.00000    0.01104
 10 Cs   -0.00545    0.00000    0.02238
 11 Cs    0.00545    0.00000    0.02238
 12 Cs    0.00000   -0.00545    0.02238
 13 Cs    0.01778    0.01778    0.00799
 14 Cs   -0.01778    0.01778    0.00799
 15 Cs    0.00000    0.00545    0.02238
 16 Cs    0.01778   -0.01778    0.00799
 17 Cs   -0.01778   -0.01778    0.00799
 18 Cs   -0.01778   -0.01778   -0.00799
 19 Cs    0.00000    0.00545   -0.02238
 20 Cs    0.01778   -0.01778   -0.00799
 21 Cs    0.00545    0.00000   -0.02238
 22 Cs    0.00000    0.00000   -0.01104
 23 Cs   -0.00545    0.00000   -0.02238
 24 Cs   -0.01778    0.01778   -0.00799
 25 Cs    0.00000   -0.00545   -0.02238
 26 Cs    0.01778    0.01778   -0.00799
 27 Cs    0.00000    0.00000    0.12108
 28 Cs    0.02670    0.00000    0.06130
 29 Cs   -0.02670    0.00000    0.06130
 30 Cs    0.00000    0.02670    0.06130
 31 Cs   -0.00516   -0.00516    0.08017
 32 Cs    0.00516   -0.00516    0.08017
 33 Cs    0.00000   -0.02670    0.06130
 34 Cs   -0.00516    0.00516    0.08017
 35 Cs    0.00516    0.00516    0.08017

System changes: positions 

Initializing position-dependent things.

Density initialized from wave functions
            .--------------------------------------------.  
           /|                                            |  
          / |                                            |  
         /  |                                            |  
        /   |                                            |  
       /    |                                            |  
      /     |                                            |  
     /      |                                            |  
    /       |                                            |  
   /        |                                            |  
  /         |                                            |  
 *          |                                            |  
 |          |                                            |  
 |          |                                            |  
 |          |                                            |  
 |          |                                            |  
 |      Cs  |          Cs             Cs                 |  
 |          |                                            |  
 |          |     Cs             Cs             Cs       |  
 |          |                                            |  
 |   Cs     |       Cs             Cs                    |  
 |          |                                            |  
 |          | Cs             Cs             Cs           |  
 Cs         |   Cs             Cs                        |  
 |      Cs  |          Cs             Cs                 |  
 |        Cs|     Cs     Cs      Cs     Cs      Cs       |  
 |          |                                            |  
 |   Cs     |       Cs             Cs                    |  
 |          |                                            |  
 |          | Cs             Cs             Cs           |  
 |          |                                            |  
 Cs         |   Cs             Cs                        |  
 |          |                                            |  
 |        Cs|            Cs             Cs               |  
 |          |                                            |  
 |          |                                            |  
 |          .--------------------------------------------.  
 |         /                                            /   
 |        /                                            /    
 |       /                                            /     
 |      /                                            /      
 |     /                                            /       
 |    /                                            /        
 |   /                                            /         
 |  /                                            /          
 | /                                            /           
 |/                                            /            
 *--------------------------------------------*             

Positions:
   0 Cs     3.025340    3.025340    9.984263    ( 0.0000,  0.0000,  0.0000)
   1 Cs     9.075000    3.019712    9.988243    ( 0.0000,  0.0000,  0.0000)
   2 Cs    15.124660    3.025340    9.984263    ( 0.0000,  0.0000,  0.0000)
   3 Cs     3.019712    9.075000    9.988243    ( 0.0000,  0.0000,  0.0000)
   4 Cs     9.075000    9.075000    9.978354    ( 0.0000,  0.0000,  0.0000)
   5 Cs    15.130288    9.075000    9.988243    ( 0.0000,  0.0000,  0.0000)
   6 Cs     3.025340   15.124660    9.984263    ( 0.0000,  0.0000,  0.0000)
   7 Cs     9.075000   15.130288    9.988243    ( 0.0000,  0.0000,  0.0000)
   8 Cs    15.124660   15.124660    9.984263    ( 0.0000,  0.0000,  0.0000)
   9 Cs    -0.000000    0.000000   13.027487    ( 0.0000,  0.0000,  0.0000)
  10 Cs     6.048566    0.000000   13.029372    ( 0.0000,  0.0000,  0.0000)
  11 Cs    12.101434   -0.000000   13.029372    ( 0.0000,  0.0000,  0.0000)
  12 Cs     0.000000    6.048566   13.029372    ( 0.0000,  0.0000,  0.0000)
  13 Cs     6.053033    6.053033   13.027107    ( 0.0000,  0.0000,  0.0000)
  14 Cs    12.096967    6.053033   13.027107    ( 0.0000,  0.0000,  0.0000)
  15 Cs     0.000000   12.101434   13.029372    ( 0.0000,  0.0000,  0.0000)
  16 Cs     6.053033   12.096967   13.027107    ( 0.0000,  0.0000,  0.0000)
  17 Cs    12.096967   12.096967   13.027107    ( 0.0000,  0.0000,  0.0000)
  18 Cs     3.021967    3.021967   16.047893    ( 0.0000,  0.0000,  0.0000)
  19 Cs     9.075000    3.026434   16.045628    ( 0.0000,  0.0000,  0.0000)
  20 Cs    15.128033    3.021967   16.047893    ( 0.0000,  0.0000,  0.0000)
  21 Cs     3.026434    9.075000   16.045628    ( 0.0000,  0.0000,  0.0000)
  22 Cs     9.075000    9.075000   16.047513    ( 0.0000,  0.0000,  0.0000)
  23 Cs    15.123566    9.075000   16.045628    ( 0.0000,  0.0000,  0.0000)
  24 Cs     3.021967   15.128033   16.047893    ( 0.0000,  0.0000,  0.0000)
  25 Cs     9.075000   15.123566   16.045628    ( 0.0000,  0.0000,  0.0000)
  26 Cs    15.128033   15.128033   16.047893    ( 0.0000,  0.0000,  0.0000)
  27 Cs     0.000000    0.000000   19.096646    ( 0.0000,  0.0000,  0.0000)
  28 Cs     6.055288    0.000000   19.086757    ( 0.0000,  0.0000,  0.0000)
  29 Cs    12.094712   -0.000000   19.086757    ( 0.0000,  0.0000,  0.0000)
  30 Cs     0.000000    6.055288   19.086757    ( 0.0000,  0.0000,  0.0000)
  31 Cs     6.049660    6.049660   19.090737    ( 0.0000,  0.0000,  0.0000)
  32 Cs    12.100340    6.049660   19.090737    ( 0.0000,  0.0000,  0.0000)
  33 Cs     0.000000   12.094712   19.086757    ( 0.0000,  0.0000,  0.0000)
  34 Cs     6.049660   12.100340   19.090737    ( 0.0000,  0.0000,  0.0000)
  35 Cs    12.100340   12.100340   19.090737    ( 0.0000,  0.0000,  0.0000)

Unit cell:
           periodic     x           y           z      points  spacing
  1. axis:    yes   18.150000    0.000000    0.000000   112     0.1621
  2. axis:    yes    0.000000   18.150000    0.000000   112     0.1621
  3. axis:    no     0.000000    0.000000   29.075000   180     0.1615

  Lengths:  18.150000  18.150000  29.075000
  Angles:   90.000000  90.000000  90.000000

Effective grid spacing dv^(1/3) = 0.1619

     iter     time        total  log10-change:
                         energy  eigst   dens
iter:   1 03:34:33 -6603.188224  -3.24
iter:   2 03:47:12 -6603.188350  -4.26  -3.79
iter:   3 03:59:31 -6603.188438c -4.78  -3.76
iter:   4 04:11:59 -6603.188266c -5.12  -3.65
Writing to output.gpw (mode='')

iter:   5 04:24:43 -6603.188274c -5.34  -3.99
iter:   6 04:37:11 -6603.188283c -5.77  -4.00
iter:   7 04:49:38 -6603.188261c -5.86  -4.01c
iter:   8 05:02:25 -6603.188257c -6.13  -4.19c
iter:   9 05:14:59 -6603.188255c -6.21  -4.21c
Writing to output.gpw (mode='')

iter:  10 05:27:33 -6603.188260c -6.36  -4.11c
iter:  11 05:40:07 -6603.188274c -6.40  -4.33c
iter:  12 05:52:53 -6603.188275c -6.49  -4.50c
iter:  13 06:05:12 -6603.188275c -6.93  -4.56c
iter:  14 06:17:12 -6603.188286c -6.85  -4.58c
Writing to output.gpw (mode='')

iter:  15 06:29:54 -6603.188286c -6.95  -4.65c
iter:  16 06:42:25 -6603.188295c -7.00  -4.65c
iter:  17 06:54:50 -6603.188296c -7.04  -4.48c
iter:  18 07:07:21 -6603.188283c -7.06  -4.57c
iter:  19 07:19:47 -6603.188283c -7.26  -4.90c
Writing to output.gpw (mode='')

iter:  20 07:32:24 -6603.188284c -7.50c -4.89c

Converged after 20 iterations.

Dipole moment: (-52.815736, -52.815736, -0.000001) |e|*Ang

Energy contributions relative to reference atoms: (reference = -7624802.753492)

Kinetic:       +190.270465
Potential:     -171.762932
External:        +0.000000
XC:            -6622.610575
Entropy (-ST):   -0.537802
Local:           +1.183658
--------------------------
Free energy:   -6603.457185
Extrapolated:  -6603.188284

Dipole-layer corrected work functions: 2.227282, 2.227282 eV

 Band  Eigenvalues  Occupancy
    0    -26.48494    2.00000
    1    -26.48494    2.00000
    2    -26.48436    2.00000
    3    -26.48436    2.00000
    4    -26.48415    2.00000
    5    -26.48415    2.00000
    6    -26.48414    2.00000
    7    -26.48413    2.00000
    8    -26.48394    2.00000
    9    -26.48394    2.00000
   10    -26.48383    2.00000
   11    -26.48383    2.00000
   12    -26.48378    2.00000
   13    -26.48377    2.00000
   14    -26.48362    2.00000
   15    -26.48362    2.00000
   16    -26.48354    2.00000
   17    -26.48354    2.00000
   18    -26.25289    2.00000
   19    -26.25191    2.00000
   20    -26.25179    2.00000
   21    -26.25104    2.00000
   22    -26.25022    2.00000
   23    -26.25012    2.00000
   24    -26.24983    2.00000
   25    -26.24968    2.00000
   26    -26.24914    2.00000
   27    -26.24871    2.00000
   28    -26.24850    2.00000
   29    -26.24848    2.00000
   30    -26.24839    2.00000
   31    -26.24833    2.00000
   32    -26.24751    2.00000
   33    -26.24711    2.00000
   34    -26.24699    2.00000
   35    -26.24634    2.00000
   36    -13.36278    2.00000
   37    -13.36242    2.00000
   38    -13.36239    2.00000
   39    -13.36231    2.00000
   40    -13.36214    2.00000
   41    -13.36144    2.00000
   42    -13.36124    2.00000
   43    -13.36087    2.00000
   44    -13.36007    2.00000
   45    -13.36002    2.00000
   46    -13.35982    2.00000
   47    -13.35969    2.00000
   48    -13.35959    2.00000
   49    -13.35905    2.00000
   50    -13.35867    2.00000
   51    -13.35848    2.00000
   52    -13.35792    2.00000
   53    -13.35786    2.00000
   54    -13.35785    2.00000
   55    -13.35740    2.00000
   56    -13.35740    2.00000
   57    -13.35733    2.00000
   58    -13.35719    2.00000
   59    -13.35676    2.00000
   60    -13.35675    2.00000
   61    -13.35668    2.00000
   62    -13.35659    2.00000
   63    -13.35531    2.00000
   64    -13.35399    2.00000
   65    -13.35339    2.00000
   66    -13.34762    2.00000
   67    -13.34759    2.00000
   68    -13.34694    2.00000
   69    -13.34690    2.00000
   70    -13.34683    2.00000
   71    -13.34553    2.00000
   72    -13.34530    2.00000
   73    -13.34479    2.00000
   74    -13.34404    2.00000
   75    -13.34404    2.00000
   76    -13.34365    2.00000
   77    -13.34364    2.00000
   78    -13.33666    2.00000
   79    -13.33612    2.00000
   80    -13.33603    2.00000
   81    -13.33580    2.00000
   82    -13.33440    2.00000
   83    -13.33440    2.00000
   84    -13.33404    2.00000
   85    -13.33401    2.00000
   86    -13.33236    2.00000
   87    -13.33233    2.00000
   88    -13.33221    2.00000
   89    -13.33218    2.00000
   90    -13.16460    2.00000
   91    -13.16407    2.00000
   92    -13.16373    2.00000
   93    -13.16158    2.00000
   94    -13.16158    2.00000
   95    -13.16138    2.00000
   96    -13.16120    2.00000
   97    -13.16102    2.00000
   98    -13.16082    2.00000
   99    -13.15965    2.00000
  100    -13.15963    2.00000
  101    -13.15753    2.00000
  102    -13.15737    2.00000
  103    -13.15637    2.00000
  104    -13.15106    2.00000
  105    -13.15077    2.00000
  106    -13.14916    2.00000
  107    -13.13707    2.00000
  108    -13.13680    2.00000
  109    -13.13655    2.00000
  110    -13.13004    2.00000
  111    -13.12980    2.00000
  112    -13.12920    2.00000
  113    -13.12652    2.00000
  114    -13.12637    2.00000
  115    -13.12357    2.00000
  116    -13.11822    2.00000
  117    -13.11807    2.00000
  118    -13.11437    2.00000
  119    -13.11433    2.00000
  120    -13.10498    2.00000
  121    -13.10493    2.00000
  122    -13.10456    2.00000
  123    -13.09899    2.00000
  124    -13.09470    2.00000
  125    -13.09469    2.00000
  126    -13.09269    2.00000
  127    -13.09268    2.00000
  128    -13.09146    2.00000
  129    -13.09141    2.00000
  130    -13.09123    2.00000
  131    -13.09104    2.00000
  132    -13.09088    2.00000
  133    -13.09084    2.00000
  134    -13.09036    2.00000
  135    -13.09026    2.00000
  136    -13.09015    2.00000
  137    -13.09001    2.00000
  138    -13.09000    2.00000
  139    -13.08775    2.00000
  140    -13.08768    2.00000
  141    -13.08733    2.00000
  142    -13.08643    2.00000
  143    -13.08351    2.00000
  144     -3.69359    2.00000
  145     -3.39990    2.00000
  146     -3.39977    2.00000
  147     -3.14714    2.00000
  148     -3.12349    2.00000
  149     -2.88845    2.00000
  150     -2.88799    2.00000
  151     -2.86828    1.99999
  152     -2.86820    1.99999
  153     -2.63154    1.99938
  154     -2.63108    1.99938
  155     -2.62390    1.99928
  156     -2.44841    1.97628
  157     -2.44818    1.97617
  158     -2.41459    1.95387
  159     -2.25783    1.29634
  160     -2.21417    0.86962
  161     -2.21416    0.86954
  162     -2.21381    0.86608
  163     -2.21378    0.86582
  164     -2.17778    0.54177
  165     -2.17715    0.53683
  166     -2.06815    0.07965
  167     -2.06786    0.07921
  168     -2.02501    0.03441
  169     -2.02499    0.03439
  170     -1.97244    0.01216
  171     -1.95615    0.00879
  172     -1.81639    0.00054
  173     -1.74954    0.00014
  174     -1.74921    0.00014
  175     -1.74808    0.00014
  176     -1.68383    0.00004
  177     -1.68298    0.00004
  178     -1.51758    0.00000
  179     -1.41400    0.00000

Fermi level: -2.22728

Gap: 0.044 eV
Transition (v -> c):
  (s=0, k=0, n=159, [0.25, 0.25, 0.00]) -> (s=0, k=0, n=160, [0.25, 0.25, 0.00])

Forces in eV/Ang:
  0 Cs    0.00768    0.00768   -0.08068
  1 Cs    0.00000   -0.02727   -0.06076
  2 Cs   -0.00768    0.00768   -0.08068
  3 Cs   -0.02727    0.00000   -0.06076
  4 Cs    0.00000    0.00000   -0.12053
  5 Cs    0.02727    0.00000   -0.06076
  6 Cs    0.00768   -0.00768   -0.08068
  7 Cs    0.00000    0.02727   -0.06076
  8 Cs   -0.00768   -0.00768   -0.08068
  9 Cs    0.00000    0.00000    0.00495
 10 Cs   -0.00004    0.00000    0.01892
 11 Cs    0.00004    0.00000    0.01892
 12 Cs    0.00000   -0.00004    0.01892
 13 Cs    0.01774    0.01774    0.00180
 14 Cs   -0.01774    0.01774    0.00180
 15 Cs    0.00000    0.00004    0.01892
 16 Cs    0.01774   -0.01774    0.00180
 17 Cs   -0.01774   -0.01774    0.00180
 18 Cs   -0.01774   -0.01774   -0.00180
 19 Cs    0.00000    0.00004   -0.01892
 20 Cs    0.01774   -0.01774   -0.00180
 21 Cs    0.00004    0.00000   -0.01892
 22 Cs    0.00000    0.00000   -0.00495
 23 Cs   -0.00004    0.00000   -0.01892
 24 Cs   -0.01774    0.01774   -0.00180
 25 Cs    0.00000   -0.00004   -0.01892
 26 Cs    0.01774    0.01774   -0.00180
 27 Cs    0.00000    0.00000    0.12053
 28 Cs    0.02727    0.00000    0.06076
 29 Cs   -0.02727    0.00000    0.06076
 30 Cs    0.00000    0.02727    0.06076
 31 Cs   -0.00769   -0.00769    0.08068
 32 Cs    0.00769   -0.00769    0.08068
 33 Cs    0.00000   -0.02727    0.06076
 34 Cs   -0.00769    0.00769    0.08068
 35 Cs    0.00769    0.00769    0.08068

System changes: positions 

Initializing position-dependent things.

Density initialized from wave functions
            .--------------------------------------------.  
           /|                                            |  
          / |                                            |  
         /  |                                            |  
        /   |                                            |  
       /    |                                            |  
      /     |                                            |  
     /      |                                            |  
    /       |                                            |  
   /        |                                            |  
  /         |                                            |  
 *          |                                            |  
 |          |                                            |  
 |          |                                            |  
 |          |                                            |  
 |          |                                            |  
 |      Cs  |          Cs             Cs                 |  
 |          |                                            |  
 |          |     Cs             Cs             Cs       |  
 |          |                                            |  
 |   Cs     |       Cs             Cs                    |  
 |          |                                            |  
 |          | Cs             Cs             Cs           |  
 Cs         |   Cs             Cs                        |  
 |      Cs  |          Cs             Cs                 |  
 |        Cs|     Cs     Cs      Cs     Cs      Cs       |  
 |          |                                            |  
 |   Cs     |       Cs             Cs                    |  
 |          |                                            |  
 |          | Cs             Cs             Cs           |  
 |          |                                            |  
 Cs         |   Cs             Cs                        |  
 |          |                                            |  
 |        Cs|            Cs             Cs               |  
 |          |                                            |  
 |          |                                            |  
 |          .--------------------------------------------.  
 |         /                                            /   
 |        /                                            /    
 |       /                                            /     
 |      /                                            /      
 |     /                                            /       
 |    /                                            /        
 |   /                                            /         
 |  /                                            /          
 | /                                            /           
 |/                                            /            
 *--------------------------------------------*             

Positions:
   0 Cs     3.025558    3.025558    9.977049    ( 0.0000,  0.0000,  0.0000)
   1 Cs     9.075000    3.017284    9.982854    ( 0.0000,  0.0000,  0.0000)
   2 Cs    15.124442    3.025558    9.977049    ( 0.0000,  0.0000,  0.0000)
   3 Cs     3.017284    9.075000    9.982854    ( 0.0000,  0.0000,  0.0000)
   4 Cs     9.075000    9.075000    9.968354    ( 0.0000,  0.0000,  0.0000)
   5 Cs    15.132716    9.075000    9.982854    ( 0.0000,  0.0000,  0.0000)
   6 Cs     3.025558   15.124442    9.977049    ( 0.0000,  0.0000,  0.0000)
   7 Cs     9.075000   15.132716    9.982854    ( 0.0000,  0.0000,  0.0000)
   8 Cs    15.124442   15.124442    9.977049    ( 0.0000,  0.0000,  0.0000)
   9 Cs    -0.000000    0.000000   13.028529    ( 0.0000,  0.0000,  0.0000)
  10 Cs     6.047999    0.000000   13.031328    ( 0.0000,  0.0000,  0.0000)
  11 Cs    12.102001   -0.000000   13.031328    ( 0.0000,  0.0000,  0.0000)
  12 Cs     0.000000    6.047999   13.031328    ( 0.0000,  0.0000,  0.0000)
  13 Cs     6.054442    6.054442   13.027964    ( 0.0000,  0.0000,  0.0000)
  14 Cs    12.095558    6.054442   13.027964    ( 0.0000,  0.0000,  0.0000)
  15 Cs     0.000000   12.102001   13.031328    ( 0.0000,  0.0000,  0.0000)
  16 Cs     6.054442   12.095558   13.027964    ( 0.0000,  0.0000,  0.0000)
  17 Cs    12.095558   12.095558   13.027964    ( 0.0000,  0.0000,  0.0000)
  18 Cs     3.020558    3.020558   16.047036    ( 0.0000,  0.0000,  0.0000)
  19 Cs     9.075000    3.027001   16.043672    ( 0.0000,  0.0000,  0.0000)
  20 Cs    15.129442    3.020558   16.047036    ( 0.0000,  0.0000,  0.0000)
  21 Cs     3.027001    9.075000   16.043672    ( 0.0000,  0.0000,  0.0000)
  22 Cs     9.075000    9.075000   16.046471    ( 0.0000,  0.0000,  0.0000)
  23 Cs    15.122999    9.075000   16.043672    ( 0.0000,  0.0000,  0.0000)
  24 Cs     3.020558   15.129442   16.047036    ( 0.0000,  0.0000,  0.0000)
  25 Cs     9.075000   15.122999   16.043672    ( 0.0000,  0.0000,  0.0000)
  26 Cs    15.129442   15.129442   16.047036    ( 0.0000,  0.0000,  0.0000)
  27 Cs     0.000000    0.000000   19.106646    ( 0.0000,  0.0000,  0.0000)
  28 Cs     6.057716    0.000000   19.092146    ( 0.0000,  0.0000,  0.0000)
  29 Cs    12.092284   -0.000000   19.092146    ( 0.0000,  0.0000,  0.0000)
  30 Cs     0.000000    6.057716   19.092146    ( 0.0000,  0.0000,  0.0000)
  31 Cs     6.049442    6.049442   19.097951    ( 0.0000,  0.0000,  0.0000)
  32 Cs    12.100558    6.049442   19.097951    ( 0.0000,  0.0000,  0.0000)
  33 Cs     0.000000   12.092284   19.092146    ( 0.0000,  0.0000,  0.0000)
  34 Cs     6.049442   12.100558   19.097951    ( 0.0000,  0.0000,  0.0000)
  35 Cs    12.100558   12.100558   19.097951    ( 0.0000,  0.0000,  0.0000)

Unit cell:
           periodic     x           y           z      points  spacing
  1. axis:    yes   18.150000    0.000000    0.000000   112     0.1621
  2. axis:    yes    0.000000   18.150000    0.000000   112     0.1621
  3. axis:    no     0.000000    0.000000   29.075000   180     0.1615

  Lengths:  18.150000  18.150000  29.075000
  Angles:   90.000000  90.000000  90.000000

Effective grid spacing dv^(1/3) = 0.1619

     iter     time        total  log10-change:
                         energy  eigst   dens
iter:   1 07:45:26 -6603.199189  -3.24
iter:   2 07:57:49 -6603.199318  -4.25  -3.84
iter:   3 08:10:21 -6603.199390c -4.79  -3.80
iter:   4 08:22:55 -6603.199243c -5.09  -3.72
Writing to output.gpw (mode='')

iter:   5 08:35:18 -6603.199253c -5.38  -4.15c
iter:   6 08:47:43 -6603.199249c -5.69  -4.10c
iter:   7 09:00:07 -6603.199243c -5.89  -4.05c
iter:   8 09:12:24 -6603.199241c -6.13  -4.10c
iter:   9 09:24:40 -6603.199247c -6.29  -4.19c
Writing to output.gpw (mode='')

iter:  10 09:37:28 -6603.199262c -6.34  -4.20c
iter:  11 09:50:00 -6603.199257c -6.53  -4.58c
iter:  12 10:02:53 -6603.199268c -6.68  -4.50c
iter:  13 10:15:30 -6603.199271c -6.79  -4.59c
iter:  14 10:28:05 -6603.199273c -6.87  -4.60c
Writing to output.gpw (mode='')

iter:  15 10:40:40 -6603.199272c -6.99  -4.59c
iter:  16 10:53:25 -6603.199265c -7.05  -4.58c
iter:  17 11:05:43 -6603.199272c -7.15  -4.69c
iter:  18 11:18:07 -6603.199273c -7.16  -4.80c
iter:  19 11:30:16 -6603.199272c -7.32  -4.77c
Writing to output.gpw (mode='')

iter:  20 11:42:28 -6603.199269c -7.33  -4.73c
iter:  21 11:54:59 -6603.199271c -7.48c -4.77c

Converged after 21 iterations.

Dipole moment: (-52.815135, -52.815135, -0.000003) |e|*Ang

Energy contributions relative to reference atoms: (reference = -7624802.753492)

Kinetic:       +189.936001
Potential:     -171.512036
External:        +0.000000
XC:            -6622.544938
Entropy (-ST):   -0.537557
Local:           +1.190480
--------------------------
Free energy:   -6603.468049
Extrapolated:  -6603.199271

Dipole-layer corrected work functions: 2.227455, 2.227456 eV

 Band  Eigenvalues  Occupancy
    0    -26.48560    2.00000
    1    -26.48560    2.00000
    2    -26.48453    2.00000
    3    -26.48453    2.00000
    4    -26.48432    2.00000
    5    -26.48432    2.00000
    6    -26.48431    2.00000
    7    -26.48431    2.00000
    8    -26.48411    2.00000
    9    -26.48411    2.00000
   10    -26.48393    2.00000
   11    -26.48392    2.00000
   12    -26.48389    2.00000
   13    -26.48388    2.00000
   14    -26.48371    2.00000
   15    -26.48371    2.00000
   16    -26.48365    2.00000
   17    -26.48365    2.00000
   18    -26.25368    2.00000
   19    -26.25270    2.00000
   20    -26.25260    2.00000
   21    -26.25184    2.00000
   22    -26.25099    2.00000
   23    -26.25092    2.00000
   24    -26.25062    2.00000
   25    -26.25049    2.00000
   26    -26.24990    2.00000
   27    -26.24951    2.00000
   28    -26.24926    2.00000
   29    -26.24925    2.00000
   30    -26.24915    2.00000
   31    -26.24909    2.00000
   32    -26.24827    2.00000
   33    -26.24786    2.00000
   34    -26.24776    2.00000
   35    -26.24710    2.00000
   36    -13.36311    2.00000
   37    -13.36244    2.00000
   38    -13.36242    2.00000
   39    -13.36239    2.00000
   40    -13.36231    2.00000
   41    -13.36162    2.00000
   42    -13.36124    2.00000
   43    -13.36090    2.00000
   44    -13.36027    2.00000
   45    -13.36020    2.00000
   46    -13.35986    2.00000
   47    -13.35974    2.00000
   48    -13.35958    2.00000
   49    -13.35915    2.00000
   50    -13.35878    2.00000
   51    -13.35850    2.00000
   52    -13.35797    2.00000
   53    -13.35792    2.00000
   54    -13.35789    2.00000
   55    -13.35746    2.00000
   56    -13.35742    2.00000
   57    -13.35735    2.00000
   58    -13.35718    2.00000
   59    -13.35678    2.00000
   60    -13.35675    2.00000
   61    -13.35671    2.00000
   62    -13.35659    2.00000
   63    -13.35532    2.00000
   64    -13.35409    2.00000
   65    -13.35348    2.00000
   66    -13.34765    2.00000
   67    -13.34765    2.00000
   68    -13.34699    2.00000
   69    -13.34695    2.00000
   70    -13.34684    2.00000
   71    -13.34556    2.00000
   72    -13.34536    2.00000
   73    -13.34487    2.00000
   74    -13.34412    2.00000
   75    -13.34408    2.00000
   76    -13.34371    2.00000
   77    -13.34370    2.00000
   78    -13.33669    2.00000
   79    -13.33616    2.00000
   80    -13.33607    2.00000
   81    -13.33585    2.00000
   82    -13.33447    2.00000
   83    -13.33445    2.00000
   84    -13.33410    2.00000
   85    -13.33407    2.00000
   86    -13.33243    2.00000
   87    -13.33241    2.00000
   88    -13.33228    2.00000
   89    -13.33226    2.00000
   90    -13.16554    2.00000
   91    -13.16497    2.00000
   92    -13.16452    2.00000
   93    -13.16256    2.00000
   94    -13.16249    2.00000
   95    -13.16223    2.00000
   96    -13.16212    2.00000
   97    -13.16190    2.00000
   98    -13.16159    2.00000
   99    -13.16057    2.00000
  100    -13.16055    2.00000
  101    -13.15833    2.00000
  102    -13.15813    2.00000
  103    -13.15709    2.00000
  104    -13.15198    2.00000
  105    -13.15160    2.00000
  106    -13.15009    2.00000
  107    -13.13796    2.00000
  108    -13.13761    2.00000
  109    -13.13744    2.00000
  110    -13.13092    2.00000
  111    -13.13060    2.00000
  112    -13.12992    2.00000
  113    -13.12736    2.00000
  114    -13.12714    2.00000
  115    -13.12428    2.00000
  116    -13.11903    2.00000
  117    -13.11882    2.00000
  118    -13.11514    2.00000
  119    -13.11507    2.00000
  120    -13.10572    2.00000
  121    -13.10564    2.00000
  122    -13.10527    2.00000
  123    -13.09967    2.00000
  124    -13.09539    2.00000
  125    -13.09535    2.00000
  126    -13.09337    2.00000
  127    -13.09335    2.00000
  128    -13.09210    2.00000
  129    -13.09207    2.00000
  130    -13.09188    2.00000
  131    -13.09173    2.00000
  132    -13.09154    2.00000
  133    -13.09150    2.00000
  134    -13.09099    2.00000
  135    -13.09088    2.00000
  136    -13.09078    2.00000
  137    -13.09067    2.00000
  138    -13.09066    2.00000
  139    -13.08842    2.00000
  140    -13.08836    2.00000
  141    -13.08801    2.00000
  142    -13.08711    2.00000
  143    -13.08420    2.00000
  144     -3.69311    2.00000
  145     -3.39952    2.00000
  146     -3.39934    2.00000
  147     -3.14690    2.00000
  148     -3.12313    2.00000
  149     -2.88840    2.00000
  150     -2.88776    2.00000
  151     -2.86798    1.99999
  152     -2.86788    1.99999
  153     -2.63132    1.99938
  154     -2.63067    1.99937
  155     -2.62389    1.99928
  156     -2.44841    1.97620
  157     -2.44810    1.97605
  158     -2.41615    1.95511
[...]
 |          |                Cs                          |  
 Cs         |   Cs             Cs                        |  
 |          |                                            |  
 |        Cs|            Cs             Cs               |  
 |          |                                            |  
 |          |                                            |  
 |          .--------------------------------------------.  
 |         /                                            /   
 |        /                                            /    
 |       /                                            /     
 |      /                                            /      
 |     /                                            /       
 |    /                                            /        
 |   /                                            /         
 |  /                                            /          
 | /                                            /           
 |/                                            /            
 *--------------------------------------------*             

Positions:
   0 Cs     3.015210    3.015210    9.664574    ( 0.0000,  0.0000,  0.0000)
   1 Cs     9.075000    2.954561    9.734320    ( 0.0000,  0.0000,  0.0000)
   2 Cs    15.134790    3.015210    9.664574    ( 0.0000,  0.0000,  0.0000)
   3 Cs     2.954561    9.075000    9.734320    ( 0.0000,  0.0000,  0.0000)
   4 Cs     9.075000    9.075000    9.595026    ( 0.0000,  0.0000,  0.0000)
   5 Cs    15.195439    9.075000    9.734320    ( 0.0000,  0.0000,  0.0000)
   6 Cs     3.015210   15.134790    9.664574    ( 0.0000,  0.0000,  0.0000)
   7 Cs     9.075000   15.195439    9.734320    ( 0.0000,  0.0000,  0.0000)
   8 Cs    15.134790   15.134790    9.664574    ( 0.0000,  0.0000,  0.0000)
   9 Cs     0.000000   -0.000000   13.018293    ( 0.0000,  0.0000,  0.0000)
  10 Cs     6.048892   -0.000000   13.093211    ( 0.0000,  0.0000,  0.0000)
  11 Cs    12.101108    0.000000   13.093211    ( 0.0000,  0.0000,  0.0000)
  12 Cs    -0.000000    6.048892   13.093211    ( 0.0000,  0.0000,  0.0000)
  13 Cs     6.087932    6.087932   13.015306    ( 0.0000,  0.0000,  0.0000)
  14 Cs    12.062068    6.087932   13.015306    ( 0.0000,  0.0000,  0.0000)
  15 Cs     0.000000   12.101108   13.093211    ( 0.0000,  0.0000,  0.0000)
  16 Cs     6.087932   12.062068   13.015306    ( 0.0000,  0.0000,  0.0000)
  17 Cs    12.062068   12.062068   13.015306    ( 0.0000,  0.0000,  0.0000)
  18 Cs     2.985498    2.985498   16.059423    ( 0.0000,  0.0000,  0.0000)
  19 Cs     9.075000    3.024523   15.981330    ( 0.0000,  0.0000,  0.0000)
  20 Cs    15.164502    2.985498   16.059423    ( 0.0000,  0.0000,  0.0000)
  21 Cs     3.024523    9.075000   15.981330    ( 0.0000,  0.0000,  0.0000)
  22 Cs     9.075000    9.075000   16.056805    ( 0.0000,  0.0000,  0.0000)
  23 Cs    15.125477    9.075000   15.981330    ( 0.0000,  0.0000,  0.0000)
  24 Cs     2.985498   15.164502   16.059423    ( 0.0000,  0.0000,  0.0000)
  25 Cs     9.075000   15.125477   15.981330    ( 0.0000,  0.0000,  0.0000)
  26 Cs    15.164502   15.164502   16.059423    ( 0.0000,  0.0000,  0.0000)
  27 Cs    -0.000000    0.000000   19.477991    ( 0.0000,  0.0000,  0.0000)
  28 Cs     6.118811    0.000000   19.340128    ( 0.0000,  0.0000,  0.0000)
  29 Cs    12.031189   -0.000000   19.340128    ( 0.0000,  0.0000,  0.0000)
  30 Cs    -0.000000    6.118811   19.340128    ( 0.0000,  0.0000,  0.0000)
  31 Cs     6.058253    6.058253   19.410625    ( 0.0000,  0.0000,  0.0000)
  32 Cs    12.091747    6.058253   19.410625    ( 0.0000,  0.0000,  0.0000)
  33 Cs     0.000000   12.031189   19.340128    ( 0.0000,  0.0000,  0.0000)
  34 Cs     6.058253   12.091747   19.410625    ( 0.0000,  0.0000,  0.0000)
  35 Cs    12.091747   12.091747   19.410625    ( 0.0000,  0.0000,  0.0000)

Unit cell:
           periodic     x           y           z      points  spacing
  1. axis:    yes   18.150000    0.000000    0.000000   112     0.1621
  2. axis:    yes    0.000000   18.150000    0.000000   112     0.1621
  3. axis:    no     0.000000    0.000000   29.075000   180     0.1615

  Lengths:  18.150000  18.150000  29.075000
  Angles:   90.000000  90.000000  90.000000

Effective grid spacing dv^(1/3) = 0.1619

     iter     time        total  log10-change:
                         energy  eigst   dens
iter:   1 21:28:30 -6603.478462  -3.07
iter:   2 21:34:06 -6603.478638  -4.11  -3.62
iter:   3 21:41:30 -6603.478680c -4.66  -3.69
iter:   4 21:52:49 -6603.478687c -5.08  -3.68
Writing to output.gpw (mode='')

iter:   5 21:58:11 -6603.478865c -5.24  -3.64
iter:   6 22:09:23 -6603.478757c -5.54  -3.81
iter:   7 22:20:54 -6603.478601c -5.98  -3.90
iter:   8 22:33:21 -6603.478642c -6.09  -4.10c
iter:   9 22:41:58 -6603.478625c -6.28  -4.20c
Writing to output.gpw (mode='')

iter:  10 22:54:12 -6603.478642c -6.60  -4.20c
iter:  11 23:06:29 -6603.478611c -6.55  -4.14c
iter:  12 23:18:01 -6603.478604c -6.75  -4.29c
iter:  13 23:30:08 -6603.478614c -6.76  -4.34c
iter:  14 23:40:28 -6603.478600c -7.03  -4.33c
Writing to output.gpw (mode='')

iter:  15 23:50:51 -6603.478594c -6.86  -4.33c
iter:  16 00:00:54 -6603.478632c -6.75  -4.37c
iter:  17 00:10:29 -6603.478645c -7.16  -4.63c
iter:  18 00:21:48 -6603.478646c -7.30  -4.69c
iter:  19 00:33:27 -6603.478649c -7.54c -4.70c

Converged after 19 iterations.

Dipole moment: (-52.791425, -52.791425, 0.000011) |e|*Ang

Energy contributions relative to reference atoms: (reference = -7624802.753492)

Kinetic:       +178.825776
Potential:     -163.445220
External:        +0.000000
XC:            -6619.787846
Entropy (-ST):   -0.508697
Local:           +1.182990
--------------------------
Free energy:   -6603.732997
Extrapolated:  -6603.478649

Dipole-layer corrected work functions: 2.227534, 2.227528 eV

 Band  Eigenvalues  Occupancy
    0    -26.50657    2.00000
    1    -26.50599    2.00000
    2    -26.49893    2.00000
    3    -26.49871    2.00000
    4    -26.49871    2.00000
    5    -26.49869    2.00000
    6    -26.49850    2.00000
    7    -26.49847    2.00000
    8    -26.49847    2.00000
    9    -26.49826    2.00000
   10    -26.49158    2.00000
   11    -26.49158    2.00000
   12    -26.49148    2.00000
   13    -26.49148    2.00000
   14    -26.49128    2.00000
   15    -26.49128    2.00000
   16    -26.49119    2.00000
   17    -26.49119    2.00000
   18    -26.28319    2.00000
   19    -26.28276    2.00000
   20    -26.28088    2.00000
   21    -26.28073    2.00000
   22    -26.27926    2.00000
   23    -26.27893    2.00000
   24    -26.27869    2.00000
   25    -26.27841    2.00000
   26    -26.27760    2.00000
   27    -26.27728    2.00000
   28    -26.27683    2.00000
   29    -26.27671    2.00000
   30    -26.27665    2.00000
   31    -26.27662    2.00000
   32    -26.27585    2.00000
   33    -26.27552    2.00000
   34    -26.27526    2.00000
   35    -26.27466    2.00000
   36    -13.37760    2.00000
   37    -13.37708    2.00000
   38    -13.37108    2.00000
   39    -13.37087    2.00000
   40    -13.37050    2.00000
   41    -13.37038    2.00000
   42    -13.36992    2.00000
   43    -13.36979    2.00000
   44    -13.36820    2.00000
   45    -13.36791    2.00000
   46    -13.36618    2.00000
   47    -13.36610    2.00000
   48    -13.36598    2.00000
   49    -13.36576    2.00000
   50    -13.36551    2.00000
   51    -13.36476    2.00000
   52    -13.36432    2.00000
   53    -13.36404    2.00000
   54    -13.36372    2.00000
   55    -13.36353    2.00000
   56    -13.36328    2.00000
   57    -13.36299    2.00000
   58    -13.36266    2.00000
   59    -13.36255    2.00000
   60    -13.36254    2.00000
   61    -13.36239    2.00000
   62    -13.36188    2.00000
   63    -13.36144    2.00000
   64    -13.36122    2.00000
   65    -13.36096    2.00000
   66    -13.35356    2.00000
   67    -13.35356    2.00000
   68    -13.35329    2.00000
   69    -13.35296    2.00000
   70    -13.35261    2.00000
   71    -13.35227    2.00000
   72    -13.35215    2.00000
   73    -13.35199    2.00000
   74    -13.35119    2.00000
   75    -13.35099    2.00000
   76    -13.35086    2.00000
   77    -13.35049    2.00000
   78    -13.34209    2.00000
   79    -13.34204    2.00000
   80    -13.34199    2.00000
   81    -13.34178    2.00000
   82    -13.34061    2.00000
   83    -13.34049    2.00000
   84    -13.34012    2.00000
   85    -13.34002    2.00000
   86    -13.33825    2.00000
   87    -13.33821    2.00000
   88    -13.33819    2.00000
   89    -13.33815    2.00000
   90    -13.19658    2.00000
   91    -13.19503    2.00000
   92    -13.19307    2.00000
   93    -13.19257    2.00000
   94    -13.19179    2.00000
   95    -13.19175    2.00000
   96    -13.19115    2.00000
   97    -13.19113    2.00000
   98    -13.19051    2.00000
   99    -13.19009    2.00000
  100    -13.18762    2.00000
  101    -13.18526    2.00000
  102    -13.18453    2.00000
  103    -13.18361    2.00000
  104    -13.18215    2.00000
  105    -13.17972    2.00000
  106    -13.17677    2.00000
  107    -13.16647    2.00000
  108    -13.16605    2.00000
  109    -13.16518    2.00000
  110    -13.15981    2.00000
  111    -13.15796    2.00000
  112    -13.15462    2.00000
  113    -13.15432    2.00000
  114    -13.15397    2.00000
  115    -13.14854    2.00000
  116    -13.14644    2.00000
  117    -13.14409    2.00000
  118    -13.14155    2.00000
  119    -13.14101    2.00000
  120    -13.13162    2.00000
  121    -13.13122    2.00000
  122    -13.13075    2.00000
  123    -13.12398    2.00000
  124    -13.12089    2.00000
  125    -13.12062    2.00000
  126    -13.11832    2.00000
  127    -13.11821    2.00000
  128    -13.11776    2.00000
  129    -13.11753    2.00000
  130    -13.11711    2.00000
  131    -13.11652    2.00000
  132    -13.11651    2.00000
  133    -13.11634    2.00000
  134    -13.11546    2.00000
  135    -13.11464    2.00000
  136    -13.11463    2.00000
  137    -13.11399    2.00000
  138    -13.11391    2.00000
  139    -13.11298    2.00000
  140    -13.11265    2.00000
  141    -13.11237    2.00000
  142    -13.11198    2.00000
  143    -13.10949    2.00000
  144     -3.66172    2.00000
  145     -3.37358    2.00000
  146     -3.36883    2.00000
  147     -3.13479    2.00000
  148     -3.09675    2.00000
  149     -2.88022    2.00000
  150     -2.87713    2.00000
  151     -2.84481    1.99999
  152     -2.84165    1.99999
  153     -2.61832    1.99919
  154     -2.60890    1.99903
  155     -2.60310    1.99891
  156     -2.47697    1.98646
  157     -2.44104    1.97243
  158     -2.43898    1.97128
  159     -2.25679    1.28451
  160     -2.25671    1.28375
  161     -2.22938    1.01845
  162     -2.18774    0.62189
  163     -2.18774    0.62183
  164     -2.17844    0.54509
  165     -2.17049    0.48431
  166     -2.06423    0.07352
  167     -2.06040    0.06828
  168     -2.00767    0.02432
  169     -1.99914    0.02055
  170     -1.99699    0.01969
  171     -1.92513    0.00471
  172     -1.86255    0.00135
  173     -1.74743    0.00014
  174     -1.74534    0.00013
  175     -1.74428    0.00013
  176     -1.69455    0.00005
  177     -1.68035    0.00004
  178     -1.60829    0.00001
  179     -1.53489    0.00000

Fermi level: -2.22753

Gap: 0.042 eV
Transition (v -> c):
  (s=0, k=0, n=161, [0.25, 0.25, 0.00]) -> (s=0, k=0, n=162, [0.25, 0.25, 0.00])
Writing to output.gpw (mode='')


Forces in eV/Ang:
  0 Cs    0.00775    0.00775   -0.02279
  1 Cs    0.00000   -0.00014   -0.02155
  2 Cs   -0.00775    0.00775   -0.02279
  3 Cs   -0.00014    0.00000   -0.02155
  4 Cs    0.00000    0.00000   -0.02010
  5 Cs    0.00014    0.00000   -0.02155
  6 Cs    0.00775   -0.00775   -0.02279
  7 Cs    0.00000    0.00014   -0.02155
  8 Cs   -0.00775   -0.00775   -0.02279
  9 Cs    0.00000    0.00000   -0.04057
 10 Cs    0.01501    0.00000   -0.05722
 11 Cs   -0.01501    0.00000   -0.05722
 12 Cs    0.00000    0.01501   -0.05722
 13 Cs   -0.01947   -0.01947   -0.03644
 14 Cs    0.01947   -0.01947   -0.03644
 15 Cs    0.00000   -0.01501   -0.05722
 16 Cs   -0.01947    0.01947   -0.03644
 17 Cs    0.01947    0.01947   -0.03644
 18 Cs    0.02331    0.02331    0.03864
 19 Cs    0.00000   -0.01139    0.05756
 20 Cs   -0.02331    0.02331    0.03864
 21 Cs   -0.01139    0.00000    0.05756
 22 Cs    0.00000    0.00000    0.04051
 23 Cs    0.01139    0.00000    0.05756
 24 Cs    0.02331   -0.02331    0.03864
 25 Cs    0.00000    0.01139    0.05756
 26 Cs   -0.02331   -0.02331    0.03864
 27 Cs    0.00000    0.00000    0.02240
 28 Cs   -0.00268    0.00000    0.02210
 29 Cs    0.00268    0.00000    0.02210
 30 Cs    0.00000   -0.00268    0.02210
 31 Cs   -0.00717   -0.00717    0.01974
 32 Cs    0.00717   -0.00717    0.01974
 33 Cs    0.00000    0.00268    0.02210
 34 Cs   -0.00717    0.00717    0.01974
 35 Cs    0.00717    0.00717    0.01974

System changes: positions 

Initializing position-dependent things.

Density initialized from wave functions
            .--------------------------------------------.  
           /|                                            |  
          / |                                            |  
         /  |                                            |  
        /   |                                            |  
       /    |                                            |  
      /     |                                            |  
     /      |                                            |  
    /       |                                            |  
   /        |                                            |  
  /         |                                            |  
 *          |                                            |  
 |          |                                            |  
 |          |                                            |  
 |          |                                            |  
 |          |                                            |  
 |      Cs  |          Cs             Cs                 |  
 |          |                                            |  
 |          |     Cs             Cs             Cs       |  
 |   Cs     |       Cs             Cs                    |  
 |          |                                            |  
 |          |                                            |  
 |          | Cs             Cs             Cs           |  
 Cs     Cs  |   Cs             Cs                        |  
 |          |          Cs             Cs                 |  
 |        Cs|            Cs             Cs               |  
 |          |     Cs             Cs             Cs       |  
 |   Cs     |       Cs             Cs                    |  
 |          |                                            |  
 |          | Cs                            Cs           |  
 |          |                Cs                          |  
 Cs         |   Cs             Cs                        |  
 |          |                                            |  
 |        Cs|            Cs             Cs               |  
 |          |                                            |  
 |          |                                            |  
 |          .--------------------------------------------.  
 |         /                                            /   
 |        /                                            /    
 |       /                                            /     
 |      /                                            /      
 |     /                                            /       
 |    /                                            /        
 |   /                                            /         
 |  /                                            /          
 | /                                            /           
 |/                                            /            
 *--------------------------------------------*             

Positions:
   0 Cs     3.014571    3.014571    9.654779    ( 0.0000,  0.0000,  0.0000)
   1 Cs     9.075000    2.953496    9.726586    ( 0.0000,  0.0000,  0.0000)
   2 Cs    15.135429    3.014571    9.654779    ( 0.0000,  0.0000,  0.0000)
   3 Cs     2.953496    9.075000    9.726586    ( 0.0000,  0.0000,  0.0000)
   4 Cs     9.075000    9.075000    9.585026    ( 0.0000,  0.0000,  0.0000)
   5 Cs    15.196504    9.075000    9.726586    ( 0.0000,  0.0000,  0.0000)
   6 Cs     3.014571   15.135429    9.654779    ( 0.0000,  0.0000,  0.0000)
   7 Cs     9.075000   15.196504    9.726586    ( 0.0000,  0.0000,  0.0000)
   8 Cs    15.135429   15.135429    9.654779    ( 0.0000,  0.0000,  0.0000)
   9 Cs     0.000000   -0.000000   13.016254    ( 0.0000,  0.0000,  0.0000)
  10 Cs     6.049338   -0.000000   13.092961    ( 0.0000,  0.0000,  0.0000)
  11 Cs    12.100662    0.000000   13.092961    ( 0.0000,  0.0000,  0.0000)
  12 Cs    -0.000000    6.049338   13.092961    ( 0.0000,  0.0000,  0.0000)
  13 Cs     6.087786    6.087786   13.013291    ( 0.0000,  0.0000,  0.0000)
  14 Cs    12.062214    6.087786   13.013291    ( 0.0000,  0.0000,  0.0000)
  15 Cs     0.000000   12.100662   13.092961    ( 0.0000,  0.0000,  0.0000)
  16 Cs     6.087786   12.062214   13.013291    ( 0.0000,  0.0000,  0.0000)
  17 Cs    12.062214   12.062214   13.013291    ( 0.0000,  0.0000,  0.0000)
  18 Cs     2.985570    2.985570   16.061457    ( 0.0000,  0.0000,  0.0000)
  19 Cs     9.075000    3.023993   15.981555    ( 0.0000,  0.0000,  0.0000)
  20 Cs    15.164430    2.985570   16.061457    ( 0.0000,  0.0000,  0.0000)
  21 Cs     3.023993    9.075000   15.981555    ( 0.0000,  0.0000,  0.0000)
  22 Cs     9.075000    9.075000   16.058871    ( 0.0000,  0.0000,  0.0000)
  23 Cs    15.126007    9.075000   15.981555    ( 0.0000,  0.0000,  0.0000)
  24 Cs     2.985570   15.164430   16.061457    ( 0.0000,  0.0000,  0.0000)
  25 Cs     9.075000   15.126007   15.981555    ( 0.0000,  0.0000,  0.0000)
  26 Cs    15.164430   15.164430   16.061457    ( 0.0000,  0.0000,  0.0000)
  27 Cs    -0.000000    0.000000   19.487886    ( 0.0000,  0.0000,  0.0000)
  28 Cs     6.119703    0.000000   19.347852    ( 0.0000,  0.0000,  0.0000)
  29 Cs    12.030297   -0.000000   19.347852    ( 0.0000,  0.0000,  0.0000)
  30 Cs    -0.000000    6.119703   19.347852    ( 0.0000,  0.0000,  0.0000)
  31 Cs     6.058787    6.058787   19.420385    ( 0.0000,  0.0000,  0.0000)
  32 Cs    12.091213    6.058787   19.420385    ( 0.0000,  0.0000,  0.0000)
  33 Cs     0.000000   12.030297   19.347852    ( 0.0000,  0.0000,  0.0000)
  34 Cs     6.058787   12.091213   19.420385    ( 0.0000,  0.0000,  0.0000)
  35 Cs    12.091213   12.091213   19.420385    ( 0.0000,  0.0000,  0.0000)

Unit cell:
           periodic     x           y           z      points  spacing
  1. axis:    yes   18.150000    0.000000    0.000000   112     0.1621
  2. axis:    yes    0.000000   18.150000    0.000000   112     0.1621
  3. axis:    no     0.000000    0.000000   29.075000   180     0.1615

  Lengths:  18.150000  18.150000  29.075000
  Angles:   90.000000  90.000000  90.000000

Effective grid spacing dv^(1/3) = 0.1619

     iter     time        total  log10-change:
                         energy  eigst   dens
iter:   1 00:46:25 -6603.484413  -3.06
iter:   2 00:58:46 -6603.484592  -4.11  -3.75
iter:   3 01:10:37 -6603.484719c -4.69  -3.72
iter:   4 01:20:56 -6603.484394c -5.05  -3.64
Writing to output.gpw (mode='')

iter:   5 01:25:16 -6603.484389c -5.40  -3.98
iter:   6 01:29:34 -6603.484390c -5.70  -4.03c
iter:   7 01:37:06 -6603.484354c -5.76  -4.01c
iter:   8 01:48:41 -6603.484388c -6.12  -4.02c
iter:   9 01:59:32 -6603.484395c -6.37  -4.08c
Writing to output.gpw (mode='')

iter:  10 02:12:06 -6603.484397c -6.61  -4.09c
iter:  11 02:24:20 -6603.484464c -6.41  -4.08c
iter:  12 02:36:18 -6603.484462c -6.68  -4.09c
iter:  13 02:48:16 -6603.484480c -6.35  -4.08c
iter:  14 02:59:56 -6603.484436c -6.56  -4.26c
Writing to output.gpw (mode='')

iter:  15 03:11:42 -6603.484439c -6.92  -4.45c
