
  ___ ___ ___ _ _ _  
 |   |   |_  | | | | 
 | | | | | . | | | | 
 |__ |  _|___|_____|  22.8.0
 |___|_|             

User:   vazumah@c23.hercules
Date:   Tue Jan 17 06:13:01 2023
Arch:   x86_64
Pid:    30716
CWD:    /home/vazumah/Python_projects/LiNRR/autocad_start/slab_experiments/free_slabs/Al/fcc110/substrate
Python: 3.10.8
gpaw:   /home/vazumah/.conda/envs/GPAW/lib/python3.10/site-packages/gpaw
_gpaw:  /home/vazumah/.conda/envs/GPAW/lib/python3.10/site-packages/
        _gpaw.cpython-310-x86_64-linux-gnu.so
ase:    /home/vazumah/.conda/envs/GPAW/lib/python3.10/site-packages/ase (version 3.22.1)
numpy:  /home/vazumah/.conda/envs/GPAW/lib/python3.10/site-packages/numpy (version 1.24.1)
scipy:  /home/vazumah/.conda/envs/GPAW/lib/python3.10/site-packages/scipy (version 1.10.0)
libxc:  5.2.3
units:  Angstrom and eV
cores: 24
OpenMP: True
OMP_NUM_THREADS: 1

Input parameters:
  h: 0.16
  kpts: {size: [4, 4, 1]}
  maxiter: 999
  occupations: {name: fermi-dirac,
                width: 0.05}
  poissonsolver: {dipolelayer: xy}
  xc: BEEF-vdW

System changes: positions, numbers, cell, pbc, initial_charges, initial_magmoms 

Initialize ...

species:
  Al:
    name: Aluminium
    id: 0292cae29f5d6237e50f6abdd43a7bdd
    Z: 13.0
    valence: 3
    core: 10
    charge: 0.0
    file: /home/vazumah/.conda/envs/GPAW/share/gpaw/Al.PBE.gz
    compensation charges: {type: gauss,
                           rc: 0.34,
                           lmax: 2}
    cutoffs: {filter: 1.91,
              core: 2.36}
    valence states:
      #              energy  rcut
      - 3s(2.00)    -7.753   1.085
      - 3p(1.00)    -2.712   1.085
      -  s          19.459   1.085
      -  p          24.499   1.085
      -  d           0.000   1.085
  
    # Using partial waves for Al as LCAO basis

Reference energy: -237723.237536  # eV

Spin-paired calculation

Convergence criteria:
 Maximum [total energy] change in last 3 cyles: 0.0005 eV / electron
 Maximum integral of absolute [dens]ity change: 0.0001 electrons / valence electron
 Maximum integral of absolute [eigenst]ate change: 4e-08 eV^2 / valence electron
 Maximum number of scf [iter]ations: 999
 (Square brackets indicate name in SCF output, whereas a 'c' in
 the SCF output indicates the quantity has converged.)

Symmetries present (total): 4

  ( 1  0  0)  ( 1  0  0)  (-1  0  0)  (-1  0  0)
  ( 0  1  0)  ( 0 -1  0)  ( 0  1  0)  ( 0 -1  0)
  ( 0  0  1)  ( 0  0  1)  ( 0  0  1)  ( 0  0  1)

16 k-points: 4 x 4 x 1 Monkhorst-Pack grid
4 k-points in the irreducible part of the Brillouin zone
       k-points in crystal coordinates                weights
   0:     0.12500000    0.12500000    0.00000000          4/16
   1:     0.12500000    0.37500000    0.00000000          4/16
   2:     0.37500000    0.12500000    0.00000000          4/16
   3:     0.37500000    0.37500000    0.00000000          4/16

Wave functions: Uniform real-space grid
  Kinetic energy operator: 6*3+1=19 point O(h^6) finite-difference Laplacian
  ScaLapack parameters: grid=1x1, blocksize=None
  Wavefunction extrapolation:
    Improved wavefunction reuse through dual PAW basis 

Occupation numbers: Fermi-Dirac:
  width: 0.0500  # eV
 

Eigensolver
   Davidson(niter=2) 

Densities:
  Coarse grid: 76*52*152 grid
  Fine grid: 152*104*304 grid
  Total Charge: 0.000000 

Density mixing:
  Method: separate
  Backend: pulay
  Linear mixing parameter: 0.05
  old densities: 5
  Damping of long wavelength oscillations: 50 

Hamiltonian:
  XC and Coulomb potentials evaluated on a 152*104*304 grid
  Using the BEEF-vdW Exchange-Correlation functional
  Interpolation: tri-quintic (5. degree polynomial)
  Poisson solver: FastPoissonSolver using
    Stencil: 6*3+1=19 point O(h^6) finite-difference Laplacian
    FFT axes: [0, 1]
    FST axes: [2]

Dipole correction along z-axis 

XC parameters: BEEF-vdW with 2 nearest neighbor stencil

Memory estimate:
  Process memory now: 156.66 MiB
  Calculator: 297.24 MiB
    Density: 61.31 MiB
      Arrays: 19.78 MiB
      Localized functions: 34.00 MiB
      Mixer: 7.54 MiB
    Hamiltonian: 15.45 MiB
      Arrays: 12.93 MiB
      XC: 0.00 MiB
      Poisson: 0.00 MiB
      vbar: 2.51 MiB
    Wavefunctions: 220.48 MiB
      Arrays psit_nG: 104.02 MiB
      Eigensolver: 112.29 MiB
      Projections: 0.08 MiB
      Projectors: 4.08 MiB

Total number of cores used: 24
Parallelization over k-points: 4
Domain decomposition: 2 x 1 x 3

Number of atoms: 36
Number of atomic orbitals: 144
Number of bands in calculation: 69
Number of valence electrons: 108
Bands to converge: occupied

... initialized

Initializing position-dependent things.

Density initialized from atomic densities
Creating initial wave functions:
  69 bands from LCAO basis set

      .-----------------------------.  
     /|                             |  
    / |                             |  
   /  |                             |  
  /   |                             |  
 *    |                             |  
 |    |                             |  
 |    |                             |  
 |    |                             |  
 |    |                             |  
 |    |                             |  
 |    |                             |  
 |    |                             |  
 |    |                             |  
 |  Al|       Al        Al          |  
 |    |   Al        Al        Al    |  
 | Al |      Al        Al           |  
 Al   |  AlAl      AlAl     Al      |  
 |  Al|Al Al  Al Al Al  Al Al Al    |  
 | Al |      Al        Al           |  
 |    |  Al        Al       Al      |  
 Al   |    Al        Al             |  
 |    |Al        Al        Al       |  
 |    |                             |  
 |    |                             |  
 |    |                             |  
 |    |                             |  
 |    |                             |  
 |    |                             |  
 |    |                             |  
 |    .-----------------------------.  
 |   /                             /   
 |  /                             /    
 | /                             /     
 |/                             /      
 *-----------------------------*       

Positions:
   0 Al     2.025000    1.431891   10.000000    ( 0.0000,  0.0000,  0.0000)
   1 Al     6.075000    1.431891   10.000000    ( 0.0000,  0.0000,  0.0000)
   2 Al    10.125000    1.431891   10.000000    ( 0.0000,  0.0000,  0.0000)
   3 Al     2.025000    4.295674   10.000000    ( 0.0000,  0.0000,  0.0000)
   4 Al     6.075000    4.295674   10.000000    ( 0.0000,  0.0000,  0.0000)
   5 Al    10.125000    4.295674   10.000000    ( 0.0000,  0.0000,  0.0000)
   6 Al     2.025000    7.159456   10.000000    ( 0.0000,  0.0000,  0.0000)
   7 Al     6.075000    7.159456   10.000000    ( 0.0000,  0.0000,  0.0000)
   8 Al    10.125000    7.159456   10.000000    ( 0.0000,  0.0000,  0.0000)
   9 Al     0.000000    0.000000   11.431891    ( 0.0000,  0.0000,  0.0000)
  10 Al     4.050000    0.000000   11.431891    ( 0.0000,  0.0000,  0.0000)
  11 Al     8.100000    0.000000   11.431891    ( 0.0000,  0.0000,  0.0000)
  12 Al     0.000000    2.863782   11.431891    ( 0.0000,  0.0000,  0.0000)
  13 Al     4.050000    2.863782   11.431891    ( 0.0000,  0.0000,  0.0000)
  14 Al     8.100000    2.863782   11.431891    ( 0.0000,  0.0000,  0.0000)
  15 Al     0.000000    5.727565   11.431891    ( 0.0000,  0.0000,  0.0000)
  16 Al     4.050000    5.727565   11.431891    ( 0.0000,  0.0000,  0.0000)
  17 Al     8.100000    5.727565   11.431891    ( 0.0000,  0.0000,  0.0000)
  18 Al     2.025000    1.431891   12.863782    ( 0.0000,  0.0000,  0.0000)
  19 Al     6.075000    1.431891   12.863782    ( 0.0000,  0.0000,  0.0000)
  20 Al    10.125000    1.431891   12.863782    ( 0.0000,  0.0000,  0.0000)
  21 Al     2.025000    4.295674   12.863782    ( 0.0000,  0.0000,  0.0000)
  22 Al     6.075000    4.295674   12.863782    ( 0.0000,  0.0000,  0.0000)
  23 Al    10.125000    4.295674   12.863782    ( 0.0000,  0.0000,  0.0000)
  24 Al     2.025000    7.159456   12.863782    ( 0.0000,  0.0000,  0.0000)
  25 Al     6.075000    7.159456   12.863782    ( 0.0000,  0.0000,  0.0000)
  26 Al    10.125000    7.159456   12.863782    ( 0.0000,  0.0000,  0.0000)
  27 Al     0.000000    0.000000   14.295674    ( 0.0000,  0.0000,  0.0000)
  28 Al     4.050000    0.000000   14.295674    ( 0.0000,  0.0000,  0.0000)
  29 Al     8.100000    0.000000   14.295674    ( 0.0000,  0.0000,  0.0000)
  30 Al     0.000000    2.863782   14.295674    ( 0.0000,  0.0000,  0.0000)
  31 Al     4.050000    2.863782   14.295674    ( 0.0000,  0.0000,  0.0000)
  32 Al     8.100000    2.863782   14.295674    ( 0.0000,  0.0000,  0.0000)
  33 Al     0.000000    5.727565   14.295674    ( 0.0000,  0.0000,  0.0000)
  34 Al     4.050000    5.727565   14.295674    ( 0.0000,  0.0000,  0.0000)
  35 Al     8.100000    5.727565   14.295674    ( 0.0000,  0.0000,  0.0000)

Unit cell:
           periodic     x           y           z      points  spacing
  1. axis:    yes   12.150000    0.000000    0.000000    76     0.1599
  2. axis:    yes    0.000000    8.591347    0.000000    52     0.1652
  3. axis:    no     0.000000    0.000000   24.295674   152     0.1598

  Lengths:  12.150000   8.591347  24.295674
  Angles:   90.000000  90.000000  90.000000

Effective grid spacing dv^(1/3) = 0.1616

     iter     time        total  log10-change:
                         energy  eigst   dens
iter:   1 06:16:45  -994.926196
iter:   2 06:19:47  -995.340428  +0.34  -0.88
iter:   3 06:22:59  -994.564853  +0.67  -0.88
iter:   4 06:26:06  -995.295966  +0.43  -1.14
Writing to output.gpw (mode='')

iter:   5 06:29:00  -997.455432  +0.79  -1.17
iter:   6 06:32:08  -994.607647  +0.72  -1.09
iter:   7 06:35:18  -994.895185  +0.05  -1.72
iter:   8 06:38:15  -994.831141  -0.61  -1.57
iter:   9 06:41:13  -994.578206  -1.73  -1.58
Writing to output.gpw (mode='')

iter:  10 06:44:18  -994.534008  -0.50  -1.80
iter:  11 06:47:24  -994.733733  -0.64  -2.03
iter:  12 06:50:29  -994.518276  -1.12  -1.63
iter:  13 06:53:38  -994.496468  -0.76  -1.95
iter:  14 06:56:47  -994.507953c -0.87  -2.23
Writing to output.gpw (mode='')

iter:  15 06:59:49  -994.508063c -1.86  -2.40
iter:  16 07:02:46  -994.506578c -2.58  -2.52
iter:  17 07:05:45  -994.507440c -2.76  -2.72
iter:  18 07:08:43  -994.507129c -3.38  -2.93
iter:  19 07:11:33  -994.507095c -3.49  -3.13
Writing to output.gpw (mode='')

iter:  20 07:14:33  -994.507049c -3.37  -3.22
iter:  21 07:17:42  -994.507044c -4.05  -3.40
iter:  22 07:20:44  -994.507041c -4.19  -3.45
iter:  23 07:23:45  -994.507052c -4.30  -3.46
iter:  24 07:26:43  -994.507136c -4.16  -3.51
Writing to output.gpw (mode='')

iter:  25 07:29:53  -994.507083c -3.90  -3.45
iter:  26 07:33:02  -994.507092c -4.69  -3.50
iter:  27 07:36:04  -994.507550c -3.73  -3.62
iter:  28 07:39:04  -994.507088c -3.53  -3.03
iter:  29 07:42:15  -994.507063c -3.60  -3.50
Writing to output.gpw (mode='')

iter:  30 07:45:26  -994.507074c -3.71  -3.80
iter:  31 07:48:26  -994.507138c -4.71  -3.72
iter:  32 07:51:34  -994.507155c -4.71  -3.84
iter:  33 07:54:47  -994.507106c -4.66  -3.72
iter:  34 07:57:55  -994.507097c -4.70  -4.33c
Writing to output.gpw (mode='')

iter:  35 08:01:08  -994.507124c -5.06  -4.04c
iter:  36 08:04:13  -994.507104c -5.21  -4.05c
iter:  37 08:07:24  -994.507099c -4.77  -4.59c
iter:  38 08:10:29  -994.507103c -6.09  -4.07c
iter:  39 08:13:35  -994.507107c -5.94  -4.19c
Writing to output.gpw (mode='')

iter:  40 08:15:57  -994.507109c -5.94  -4.52c
iter:  41 08:18:58  -994.507105c -6.23  -4.77c
iter:  42 08:22:08  -994.507109c -6.18  -4.49c
iter:  43 08:25:18  -994.507110c -6.40  -5.05c
iter:  44 08:28:27  -994.507108c -7.00  -5.04c
Writing to output.gpw (mode='')

iter:  45 08:31:31  -994.507107c -6.86  -5.32c
iter:  46 08:34:32  -994.507108c -7.26  -5.34c
iter:  47 08:37:48  -994.507108c -7.48c -5.90c

Converged after 47 iterations.

Dipole moment: (-11.228179, -6.862496, -0.000000) |e|*Ang

Energy contributions relative to reference atoms: (reference = -237723.237536)

Kinetic:        +43.950871
Potential:       -7.614832
External:        +0.000000
XC:            -1030.845245
Entropy (-ST):   -0.119200
Local:           +0.061699
--------------------------
Free energy:   -994.566708
Extrapolated:  -994.507108

Dipole-layer corrected work functions: 4.327759, 4.327759 eV

Showing only first 2 kpts
 Kpt  Band  Eigenvalues  Occupancy
  0    52     -4.43333    1.78401
  0    53     -4.35837    1.29692
  0    54     -4.31793    0.90207
  0    55     -4.24466    0.31897

  1    52     -4.58618    1.98868
  1    53     -4.29063    0.64489
  1    54     -4.01364    0.00373
  1    55     -3.94153    0.00088


Fermi level: -4.32776

No gap
Writing to output.gpw (mode='')


Forces in eV/Ang:
  0 Al   -0.00477   -0.00125    0.13382
  1 Al    0.00000    0.00278    0.13586
  2 Al    0.00477   -0.00125    0.13382
  3 Al    0.00523    0.00000    0.13593
  4 Al    0.00000    0.00000    0.13394
  5 Al   -0.00523    0.00000    0.13593
  6 Al   -0.00477    0.00125    0.13382
  7 Al    0.00000   -0.00278    0.13586
  8 Al    0.00477    0.00125    0.13382
  9 Al    0.00000    0.00000   -0.22767
 10 Al   -0.00536    0.00000   -0.22706
 11 Al    0.00536    0.00000   -0.22706
 12 Al    0.00000   -0.00293   -0.22703
 13 Al    0.00476    0.00144   -0.22769
 14 Al   -0.00476    0.00144   -0.22769
 15 Al    0.00000    0.00293   -0.22703
 16 Al    0.00476   -0.00144   -0.22769
 17 Al   -0.00476   -0.00144   -0.22769
 18 Al   -0.00475   -0.00141    0.22769
 19 Al    0.00000    0.00296    0.22704
 20 Al    0.00475   -0.00141    0.22769
 21 Al    0.00536    0.00000    0.22705
 22 Al    0.00000    0.00000    0.22767
 23 Al   -0.00536    0.00000    0.22705
 24 Al   -0.00475    0.00141    0.22769
 25 Al    0.00000   -0.00296    0.22704
 26 Al    0.00475    0.00141    0.22769
 27 Al    0.00000    0.00000   -0.13391
 28 Al   -0.00522    0.00000   -0.13593
 29 Al    0.00522    0.00000   -0.13593
 30 Al    0.00000   -0.00277   -0.13585
 31 Al    0.00478    0.00126   -0.13383
 32 Al   -0.00478    0.00126   -0.13383
 33 Al    0.00000    0.00277   -0.13585
 34 Al    0.00478   -0.00126   -0.13383
 35 Al   -0.00478   -0.00126   -0.13383

System changes: positions 

Initializing position-dependent things.

Density initialized from wave functions
      .-----------------------------.  
     /|                             |  
    / |                             |  
   /  |                             |  
  /   |                             |  
 *    |                             |  
 |    |                             |  
 |    |                             |  
 |    |                             |  
 |    |                             |  
 |    |                             |  
 |    |                             |  
 |    |                             |  
 |    |                             |  
 |  Al|       Al        Al          |  
 |    |   Al        Al        Al    |  
 | Al |      Al        Al           |  
 Al   |  AlAl      AlAl     Al      |  
 |  Al|Al Al  Al Al Al  Al Al Al    |  
 | Al |      Al        Al           |  
 |    |  Al        Al       Al      |  
 Al   |    Al        Al             |  
 |    |Al        Al        Al       |  
 |    |                             |  
 |    |                             |  
 |    |                             |  
 |    |                             |  
 |    |                             |  
 |    |                             |  
 |    |                             |  
 |    .-----------------------------.  
 |   /                             /   
 |  /                             /    
 | /                             /     
 |/                             /      
 *-----------------------------*       

Positions:
   0 Al     2.024932    1.431873   10.001912    ( 0.0000,  0.0000,  0.0000)
   1 Al     6.075000    1.431931   10.001941    ( 0.0000,  0.0000,  0.0000)
   2 Al    10.125068    1.431873   10.001912    ( 0.0000,  0.0000,  0.0000)
   3 Al     2.025075    4.295674   10.001942    ( 0.0000,  0.0000,  0.0000)
   4 Al     6.075000    4.295674   10.001913    ( 0.0000,  0.0000,  0.0000)
   5 Al    10.124925    4.295674   10.001942    ( 0.0000,  0.0000,  0.0000)
   6 Al     2.024932    7.159474   10.001912    ( 0.0000,  0.0000,  0.0000)
   7 Al     6.075000    7.159416   10.001941    ( 0.0000,  0.0000,  0.0000)
   8 Al    10.125068    7.159474   10.001912    ( 0.0000,  0.0000,  0.0000)
   9 Al     0.000000    0.000000   11.428639    ( 0.0000,  0.0000,  0.0000)
  10 Al     4.049923    0.000000   11.428648    ( 0.0000,  0.0000,  0.0000)
  11 Al     8.100077    0.000000   11.428648    ( 0.0000,  0.0000,  0.0000)
  12 Al     0.000000    2.863741   11.428648    ( 0.0000,  0.0000,  0.0000)
  13 Al     4.050068    2.863803   11.428638    ( 0.0000,  0.0000,  0.0000)
  14 Al     8.099932    2.863803   11.428638    ( 0.0000,  0.0000,  0.0000)
  15 Al     0.000000    5.727607   11.428648    ( 0.0000,  0.0000,  0.0000)
  16 Al     4.050068    5.727544   11.428638    ( 0.0000,  0.0000,  0.0000)
  17 Al     8.099932    5.727544   11.428638    ( 0.0000,  0.0000,  0.0000)
  18 Al     2.024932    1.431871   12.867035    ( 0.0000,  0.0000,  0.0000)
  19 Al     6.075000    1.431933   12.867026    ( 0.0000,  0.0000,  0.0000)
  20 Al    10.125068    1.431871   12.867035    ( 0.0000,  0.0000,  0.0000)
  21 Al     2.025077    4.295674   12.867026    ( 0.0000,  0.0000,  0.0000)
  22 Al     6.075000    4.295674   12.867035    ( 0.0000,  0.0000,  0.0000)
  23 Al    10.124923    4.295674   12.867026    ( 0.0000,  0.0000,  0.0000)
  24 Al     2.024932    7.159476   12.867035    ( 0.0000,  0.0000,  0.0000)
  25 Al     6.075000    7.159414   12.867026    ( 0.0000,  0.0000,  0.0000)
  26 Al    10.125068    7.159476   12.867035    ( 0.0000,  0.0000,  0.0000)
  27 Al     0.000000    0.000000   14.293761    ( 0.0000,  0.0000,  0.0000)
  28 Al     4.049925    0.000000   14.293732    ( 0.0000,  0.0000,  0.0000)
  29 Al     8.100075    0.000000   14.293732    ( 0.0000,  0.0000,  0.0000)
  30 Al     0.000000    2.863743   14.293733    ( 0.0000,  0.0000,  0.0000)
  31 Al     4.050068    2.863800   14.293762    ( 0.0000,  0.0000,  0.0000)
  32 Al     8.099932    2.863800   14.293762    ( 0.0000,  0.0000,  0.0000)
  33 Al     0.000000    5.727604   14.293733    ( 0.0000,  0.0000,  0.0000)
  34 Al     4.050068    5.727547   14.293762    ( 0.0000,  0.0000,  0.0000)
  35 Al     8.099932    5.727547   14.293762    ( 0.0000,  0.0000,  0.0000)

Unit cell:
           periodic     x           y           z      points  spacing
  1. axis:    yes   12.150000    0.000000    0.000000    76     0.1599
  2. axis:    yes    0.000000    8.591347    0.000000    52     0.1652
  3. axis:    no     0.000000    0.000000   24.295674   152     0.1598

  Lengths:  12.150000   8.591347  24.295674
  Angles:   90.000000  90.000000  90.000000

Effective grid spacing dv^(1/3) = 0.1616

     iter     time        total  log10-change:
                         energy  eigst   dens
iter:   1 08:41:33  -994.524505  -2.69
iter:   2 08:44:27  -994.524556  -3.43  -3.02
iter:   3 08:47:28  -994.525333c -2.47  -3.04
iter:   4 08:50:22  -994.524398c -3.26  -2.98
Writing to output.gpw (mode='')

iter:   5 08:53:26  -994.524444c -4.42  -3.54
iter:   6 08:56:28  -994.524443c -4.24  -3.59
iter:   7 08:59:36  -994.524472c -4.98  -3.54
iter:   8 09:02:53  -994.524471c -4.03  -4.02c
iter:   9 09:05:59  -994.524525c -3.96  -3.53
Writing to output.gpw (mode='')

iter:  10 09:09:07  -994.524470c -4.75  -3.24
iter:  11 09:12:27  -994.524480c -4.15  -3.57
iter:  12 09:15:33  -994.524495c -4.34  -4.01c
iter:  13 09:18:32  -994.524493c -5.28  -4.82c
iter:  14 09:21:31  -994.524490c -6.10  -4.79c
Writing to output.gpw (mode='')

iter:  15 09:24:33  -994.524489c -6.58  -4.96c
iter:  16 09:27:35  -994.524488c -6.89  -5.02c
iter:  17 09:30:39  -994.524486c -6.94  -5.08c
iter:  18 09:33:38  -994.524488c -7.01  -5.03c
iter:  19 09:36:42  -994.524489c -6.53  -5.15c
Writing to output.gpw (mode='')

iter:  20 09:39:39  -994.524485c -6.96  -4.86c
iter:  21 09:42:36  -994.524486c -7.86c -5.11c

Converged after 21 iterations.

Dipole moment: (-11.229113, -6.862504, -0.000000) |e|*Ang

Energy contributions relative to reference atoms: (reference = -237723.237536)

Kinetic:        +44.220094
Potential:       -7.814975
External:        +0.000000
XC:            -1030.931136
Entropy (-ST):   -0.119263
Local:           +0.061162
--------------------------
Free energy:   -994.584117
Extrapolated:  -994.524486

Dipole-layer corrected work functions: 4.331057, 4.331057 eV

Showing only first 2 kpts
 Kpt  Band  Eigenvalues  Occupancy
  0    52     -4.43852    1.79121
  0    53     -4.35937    1.27576
  0    54     -4.31942    0.88415
  0    55     -4.25622    0.36585

  1    52     -4.58707    1.98812
  1    53     -4.29193    0.62751
  1    54     -4.02526    0.00441
  1    55     -3.94194    0.00083


Fermi level: -4.33106

No gap
Writing to output.gpw (mode='')


Forces in eV/Ang:
  0 Al   -0.00441   -0.00097    0.12647
  1 Al    0.00000    0.00223    0.12878
  2 Al    0.00441   -0.00097    0.12647
  3 Al    0.00467    0.00000    0.12883
  4 Al    0.00000    0.00000    0.12655
  5 Al   -0.00467    0.00000    0.12883
  6 Al   -0.00441    0.00097    0.12647
  7 Al    0.00000   -0.00223    0.12878
  8 Al    0.00441    0.00097    0.12647
  9 Al    0.00000    0.00000   -0.21248
 10 Al   -0.00515    0.00000   -0.21246
 11 Al    0.00515    0.00000   -0.21246
 12 Al    0.00000   -0.00244   -0.21250
 13 Al    0.00436    0.00117   -0.21239
 14 Al   -0.00436    0.00117   -0.21239
 15 Al    0.00000    0.00244   -0.21250
 16 Al    0.00436   -0.00117   -0.21239
 17 Al   -0.00436   -0.00117   -0.21239
 18 Al   -0.00435   -0.00117    0.21239
 19 Al    0.00000    0.00244    0.21250
 20 Al    0.00435   -0.00117    0.21239
 21 Al    0.00516    0.00000    0.21246
 22 Al    0.00000    0.00000    0.21248
 23 Al   -0.00516    0.00000    0.21246
 24 Al   -0.00435    0.00117    0.21239
 25 Al    0.00000   -0.00244    0.21250
 26 Al    0.00435    0.00117    0.21239
 27 Al    0.00000    0.00000   -0.12655
 28 Al   -0.00466    0.00000   -0.12884
 29 Al    0.00466    0.00000   -0.12884
 30 Al    0.00000   -0.00222   -0.12877
 31 Al    0.00442    0.00097   -0.12647
 32 Al   -0.00442    0.00097   -0.12647
 33 Al    0.00000    0.00222   -0.12877
 34 Al    0.00442   -0.00097   -0.12647
 35 Al   -0.00442   -0.00097   -0.12647

System changes: positions 

Initializing position-dependent things.

Density initialized from wave functions
      .-----------------------------.  
     /|                             |  
    / |                             |  
   /  |                             |  
  /   |                             |  
 *    |                             |  
 |    |                             |  
 |    |                             |  
 |    |                             |  
 |    |                             |  
 |    |                             |  
 |    |                             |  
 |    |                             |  
 |    |                             |  
 |  Al|       Al        Al          |  
 |    |   Al        Al        Al    |  
 | Al |      Al        Al           |  
 Al   |  AlAl      AlAl     Al      |  
 |  Al|Al Al  Al Al Al  Al Al Al    |  
 | Al |      Al        Al           |  
 |    |  Al        Al       Al      |  
 Al   |    Al        Al             |  
 |    |Al        Al        Al       |  
 |    |                             |  
 |    |                             |  
 |    |                             |  
 |    |                             |  
 |    |                             |  
 |    |                             |  
 |    |                             |  
 |    .-----------------------------.  
 |   /                             /   
 |  /                             /    
 | /                             /     
 |/                             /      
 *-----------------------------*       

Positions:
   0 Al     2.024724    1.431828   10.007863    ( 0.0000,  0.0000,  0.0000)
   1 Al     6.075000    1.432036   10.008000    ( 0.0000,  0.0000,  0.0000)
   2 Al    10.125276    1.431828   10.007863    ( 0.0000,  0.0000,  0.0000)
   3 Al     2.025294    4.295674   10.008004    ( 0.0000,  0.0000,  0.0000)
   4 Al     6.075000    4.295674   10.007868    ( 0.0000,  0.0000,  0.0000)
   5 Al    10.124706    4.295674   10.008004    ( 0.0000,  0.0000,  0.0000)
   6 Al     2.024724    7.159520   10.007863    ( 0.0000,  0.0000,  0.0000)
   7 Al     6.075000    7.159312   10.008000    ( 0.0000,  0.0000,  0.0000)
   8 Al    10.125276    7.159520   10.007863    ( 0.0000,  0.0000,  0.0000)
   9 Al     0.000000   -0.000000   11.418641    ( 0.0000,  0.0000,  0.0000)
  10 Al     4.049681   -0.000000   11.418651    ( 0.0000,  0.0000,  0.0000)
  11 Al     8.100319    0.000000   11.418651    ( 0.0000,  0.0000,  0.0000)
  12 Al     0.000000    2.863626   11.418649    ( 0.0000,  0.0000,  0.0000)
  13 Al     4.050273    2.863858   11.418645    ( 0.0000,  0.0000,  0.0000)
  14 Al     8.099727    2.863858   11.418645    ( 0.0000,  0.0000,  0.0000)
  15 Al    -0.000000    5.727722   11.418649    ( 0.0000,  0.0000,  0.0000)
  16 Al     4.050273    5.727489   11.418645    ( 0.0000,  0.0000,  0.0000)
  17 Al     8.099727    5.727489   11.418645    ( 0.0000,  0.0000,  0.0000)
  18 Al     2.024728    1.431816   12.877029    ( 0.0000,  0.0000,  0.0000)
  19 Al     6.075000    1.432048   12.877025    ( 0.0000,  0.0000,  0.0000)
  20 Al    10.125272    1.431816   12.877029    ( 0.0000,  0.0000,  0.0000)
  21 Al     2.025319    4.295674   12.877023    ( 0.0000,  0.0000,  0.0000)
  22 Al     6.075000    4.295674   12.877033    ( 0.0000,  0.0000,  0.0000)
  23 Al    10.124681    4.295674   12.877023    ( 0.0000,  0.0000,  0.0000)
  24 Al     2.024728    7.159531   12.877029    ( 0.0000,  0.0000,  0.0000)
  25 Al     6.075000    7.159299   12.877025    ( 0.0000,  0.0000,  0.0000)
  26 Al    10.125272    7.159531   12.877029    ( 0.0000,  0.0000,  0.0000)
  27 Al    -0.000000    0.000000   14.287806    ( 0.0000,  0.0000,  0.0000)
  28 Al     4.049706   -0.000000   14.287670    ( 0.0000,  0.0000,  0.0000)
  29 Al     8.100294    0.000000   14.287670    ( 0.0000,  0.0000,  0.0000)
  30 Al     0.000000    2.863638   14.287674    ( 0.0000,  0.0000,  0.0000)
  31 Al     4.050276    2.863846   14.287811    ( 0.0000,  0.0000,  0.0000)
  32 Al     8.099724    2.863846   14.287811    ( 0.0000,  0.0000,  0.0000)
  33 Al     0.000000    5.727709   14.287674    ( 0.0000,  0.0000,  0.0000)
  34 Al     4.050276    5.727501   14.287811    ( 0.0000,  0.0000,  0.0000)
  35 Al     8.099724    5.727501   14.287811    ( 0.0000,  0.0000,  0.0000)

Unit cell:
           periodic     x           y           z      points  spacing
  1. axis:    yes   12.150000    0.000000    0.000000    76     0.1599
  2. axis:    yes    0.000000    8.591347    0.000000    52     0.1652
  3. axis:    no     0.000000    0.000000   24.295674   152     0.1598

  Lengths:  12.150000   8.591347  24.295674
  Angles:   90.000000  90.000000  90.000000

Effective grid spacing dv^(1/3) = 0.1616

     iter     time        total  log10-change:
                         energy  eigst   dens
iter:   1 09:46:24  -994.571980  -1.71
iter:   2 09:49:34  -994.572346  -2.45  -2.54
iter:   3 09:52:28  -994.577248c -1.53  -2.56
iter:   4 09:55:33  -994.570554c -2.35  -2.53
Writing to output.gpw (mode='')

iter:   5 09:58:34  -994.570837c -3.63  -3.05
iter:   6 10:01:40  -994.570838c -3.29  -3.10
iter:   7 10:04:42  -994.570949c -3.99  -3.08
iter:   8 10:07:36  -994.570993c -3.22  -3.65
iter:   9 10:10:40  -994.571611c -3.05  -3.15
Writing to output.gpw (mode='')

iter:  10 10:13:38  -994.570966c -3.78  -2.78
iter:  11 10:16:31  -994.570947c -3.21  -3.10
iter:  12 10:19:40  -994.571105c -3.21  -3.52
iter:  13 10:22:42  -994.571080c -4.31  -3.81
iter:  14 10:25:43  -994.571012c -5.25  -3.83
Writing to output.gpw (mode='')

iter:  15 10:28:58  -994.571010c -5.65  -4.39c
iter:  16 10:31:51  -994.571008c -5.86  -4.47c
iter:  17 10:35:06  -994.570977c -5.07  -4.57c
iter:  18 10:38:09  -994.571029c -5.02  -3.97
iter:  19 10:41:08  -994.571010c -6.11  -4.29c
Writing to output.gpw (mode='')

iter:  20 10:44:08  -994.570990c -5.37  -4.69c
iter:  21 10:47:10  -994.570990c -6.14  -4.32c
iter:  22 10:50:16  -994.571008c -5.85  -4.28c
iter:  23 10:53:19  -994.571008c -6.50  -5.28c
iter:  24 10:56:22  -994.571006c -7.09  -5.45c
Writing to output.gpw (mode='')

iter:  25 10:59:34  -994.571007c -7.03  -5.49c
iter:  26 11:02:37  -994.571007c -7.40c -5.48c

Converged after 26 iterations.

Dipole moment: (-11.232253, -6.862513, 0.000000) |e|*Ang

Energy contributions relative to reference atoms: (reference = -237723.237536)

Kinetic:        +45.126206
Potential:       -8.488080
External:        +0.000000
XC:            -1031.209765
Entropy (-ST):   -0.119557
Local:           +0.060410
--------------------------
Free energy:   -994.630785
Extrapolated:  -994.571007

Dipole-layer corrected work functions: 4.342252, 4.342252 eV

Showing only first 2 kpts
 Kpt  Band  Eigenvalues  Occupancy
  0    52     -4.45487    1.80969
  0    53     -4.36273    1.20196
  0    54     -4.32458    0.82511
  0    55     -4.29218    0.53733

  1    52     -4.58985    1.98596
  1    53     -4.29625    0.56991
  1    54     -4.06139    0.00724
  1    55     -3.94366    0.00069


Fermi level: -4.34225

No gap
Writing to output.gpw (mode='')


Forces in eV/Ang:
  0 Al   -0.00292   -0.00016    0.10359
  1 Al    0.00000    0.00071    0.10633
  2 Al    0.00292   -0.00016    0.10359
  3 Al    0.00301    0.00000    0.10646
  4 Al    0.00000    0.00000    0.10300
  5 Al   -0.00301    0.00000    0.10646
  6 Al   -0.00292    0.00016    0.10359
  7 Al    0.00000   -0.00071    0.10633
  8 Al    0.00292    0.00016    0.10359
  9 Al    0.00000    0.00000   -0.16611
 10 Al   -0.00365    0.00000   -0.16805
 11 Al    0.00365    0.00000   -0.16805
 12 Al    0.00000   -0.00062   -0.16796
 13 Al    0.00301    0.00012   -0.16586
 14 Al   -0.00301    0.00012   -0.16586
 15 Al    0.00000    0.00062   -0.16796
 16 Al    0.00301   -0.00012   -0.16586
 17 Al   -0.00301   -0.00012   -0.16586
 18 Al   -0.00301   -0.00012    0.16587
 19 Al    0.00000    0.00062    0.16795
 20 Al    0.00301   -0.00012    0.16587
 21 Al    0.00365    0.00000    0.16805
 22 Al    0.00000    0.00000    0.16611
 23 Al   -0.00365    0.00000    0.16805
 24 Al   -0.00301    0.00012    0.16587
 25 Al    0.00000   -0.00062    0.16795
 26 Al    0.00301    0.00012    0.16587
 27 Al    0.00000    0.00000   -0.10300
 28 Al   -0.00301    0.00000   -0.10646
 29 Al    0.00301    0.00000   -0.10646
 30 Al    0.00000   -0.00071   -0.10633
 31 Al    0.00291    0.00016   -0.10359
 32 Al   -0.00291    0.00016   -0.10359
 33 Al    0.00000    0.00071   -0.10633
 34 Al    0.00291   -0.00016   -0.10359
 35 Al   -0.00291   -0.00016   -0.10359

System changes: positions 

Initializing position-dependent things.

Density initialized from wave functions
      .-----------------------------.  
     /|                             |  
    / |                             |  
   /  |                             |  
  /   |                             |  
 *    |                             |  
 |    |                             |  
 |    |                             |  
 |    |                             |  
 |    |                             |  
 |    |                             |  
 |    |                             |  
 |    |                             |  
 |    |                             |  
 |  Al|       Al        Al          |  
 |    |   Al        Al        Al    |  
 | Al |      Al        Al           |  
 Al   |  AlAl      AlAl     Al      |  
 |  Al|Al Al  Al Al Al  Al Al Al    |  
 | Al |      Al        Al           |  
 |    |  Al        Al       Al      |  
 Al   |    Al        Al             |  
 |    |Al        Al        Al       |  
 |    |                             |  
 |    |                             |  
 |    |                             |  
 |    |                             |  
 |    |                             |  
 |    |                             |  
 |    |                             |  
 |    .-----------------------------.  
 |   /                             /   
 |  /                             /    
 | /                             /     
 |/                             /      
 *-----------------------------*       

Positions:
   0 Al     2.024527    1.431793   10.013878    ( 0.0000,  0.0000,  0.0000)
   1 Al     6.075000    1.432122   10.014140    ( 0.0000,  0.0000,  0.0000)
   2 Al    10.125473    1.431793   10.013878    ( 0.0000,  0.0000,  0.0000)
   3 Al     2.025502    4.295674   10.014148    ( 0.0000,  0.0000,  0.0000)
   4 Al     6.075000    4.295674   10.013875    ( 0.0000,  0.0000,  0.0000)
   5 Al    10.124498    4.295674   10.014148    ( 0.0000,  0.0000,  0.0000)
   6 Al     2.024527    7.159554   10.013878    ( 0.0000,  0.0000,  0.0000)
   7 Al     6.075000    7.159226   10.014140    ( 0.0000,  0.0000,  0.0000)
   8 Al    10.125473    7.159554   10.013878    ( 0.0000,  0.0000,  0.0000)
   9 Al     0.000000   -0.000000   11.408678    ( 0.0000,  0.0000,  0.0000)
  10 Al     4.049447   -0.000000   11.408653    ( 0.0000,  0.0000,  0.0000)
  11 Al     8.100553   -0.000000   11.408653    ( 0.0000,  0.0000,  0.0000)
  12 Al     0.000000    2.863534   11.408652    ( 0.0000,  0.0000,  0.0000)
  13 Al     4.050470    2.863899   11.408690    ( 0.0000,  0.0000,  0.0000)
  14 Al     8.099530    2.863899   11.408690    ( 0.0000,  0.0000,  0.0000)
  15 Al    -0.000000    5.727813   11.408652    ( 0.0000,  0.0000,  0.0000)
  16 Al     4.050470    5.727449   11.408690    ( 0.0000,  0.0000,  0.0000)
  17 Al     8.099530    5.727449   11.408690    ( 0.0000,  0.0000,  0.0000)
  18 Al     2.024531    1.431775   12.886984    ( 0.0000,  0.0000,  0.0000)
  19 Al     6.075000    1.432140   12.887021    ( 0.0000,  0.0000,  0.0000)
  20 Al    10.125469    1.431775   12.886984    ( 0.0000,  0.0000,  0.0000)
  21 Al     2.025554    4.295674   12.887020    ( 0.0000,  0.0000,  0.0000)
  22 Al     6.075000    4.295674   12.886996    ( 0.0000,  0.0000,  0.0000)
  23 Al    10.124446    4.295674   12.887020    ( 0.0000,  0.0000,  0.0000)
  24 Al     2.024531    7.159572   12.886984    ( 0.0000,  0.0000,  0.0000)
  25 Al     6.075000    7.159208   12.887021    ( 0.0000,  0.0000,  0.0000)
  26 Al    10.125469    7.159572   12.886984    ( 0.0000,  0.0000,  0.0000)
  27 Al    -0.000000    0.000000   14.281799    ( 0.0000,  0.0000,  0.0000)
  28 Al     4.049499   -0.000000   14.281526    ( 0.0000,  0.0000,  0.0000)
  29 Al     8.100501    0.000000   14.281526    ( 0.0000,  0.0000,  0.0000)
  30 Al     0.000000    2.863552   14.281534    ( 0.0000,  0.0000,  0.0000)
  31 Al     4.050474    2.863881   14.281796    ( 0.0000,  0.0000,  0.0000)
  32 Al     8.099526    2.863881   14.281796    ( 0.0000,  0.0000,  0.0000)
  33 Al     0.000000    5.727795   14.281534    ( 0.0000,  0.0000,  0.0000)
  34 Al     4.050474    5.727466   14.281796    ( 0.0000,  0.0000,  0.0000)
  35 Al     8.099526    5.727466   14.281796    ( 0.0000,  0.0000,  0.0000)

Unit cell:
           periodic     x           y           z      points  spacing
  1. axis:    yes   12.150000    0.000000    0.000000    76     0.1599
  2. axis:    yes    0.000000    8.591347    0.000000    52     0.1652
  3. axis:    no     0.000000    0.000000   24.295674   152     0.1598

  Lengths:  12.150000   8.591347  24.295674
  Angles:   90.000000  90.000000  90.000000

Effective grid spacing dv^(1/3) = 0.1616

     iter     time        total  log10-change:
                         energy  eigst   dens
iter:   1 11:06:25  -994.607553  -1.71
iter:   2 11:09:44  -994.608052  -2.45  -2.54
iter:   3 11:12:56  -994.613014c -1.56  -2.56
iter:   4 11:16:07  -994.606583c -2.40  -2.57
Writing to output.gpw (mode='')

iter:   5 11:19:18  -994.606978c -3.78  -3.01
iter:   6 11:22:25  -994.606876c -3.30  -3.09
iter:   7 11:25:20  -994.607109c -3.95  -3.08
iter:   8 11:28:23  -994.606991c -3.41  -3.75
iter:   9 11:31:15  -994.607364c -3.14  -3.26
Writing to output.gpw (mode='')

iter:  10 11:34:21  -994.607001c -3.84  -2.84
iter:  11 11:37:25  -994.607066c -3.30  -3.15
iter:  12 11:40:33  -994.607254c -3.30  -3.56
iter:  13 11:43:35  -994.607228c -4.36  -3.80
iter:  14 11:46:34  -994.607132c -5.22  -3.80
Writing to output.gpw (mode='')

iter:  15 11:49:39  -994.607129c -5.62  -4.32c
iter:  16 11:52:43  -994.607135c -6.02  -4.39c
iter:  17 11:55:42  -994.607161c -5.36  -4.36c
iter:  18 11:58:40  -994.607106c -5.37  -4.13c
iter:  19 12:01:39  -994.607137c -5.81  -4.49c
Writing to output.gpw (mode='')

iter:  20 12:04:49  -994.607130c -6.62  -4.61c
iter:  21 12:07:52  -994.607106c -5.69  -4.82c
iter:  22 12:10:53  -994.607127c -6.21  -4.47c
iter:  23 12:13:54  -994.607127c -6.77  -5.24c
iter:  24 12:16:57  -994.607122c -7.15  -5.28c
Writing to output.gpw (mode='')

iter:  25 12:20:14  -994.607122c -7.42c -5.45c

Converged after 25 iterations.

Dipole moment: (-11.235705, -6.862511, 0.000000) |e|*Ang

Energy contributions relative to reference atoms: (reference = -237723.237536)

Kinetic:        +46.151098
Potential:       -9.250814
External:        +0.000000
XC:            -1031.507210
Entropy (-ST):   -0.119595
Local:           +0.059602
--------------------------
Free energy:   -994.666920
Extrapolated:  -994.607122

Dipole-layer corrected work functions: 4.354865, 4.354865 eV

Showing only first 2 kpts
 Kpt  Band  Eigenvalues  Occupancy
  0    52     -4.47170    1.82375
  0    53     -4.36659    1.11673
  0    54     -4.33070    0.76290
  0    55     -4.32857    0.74297

  1    52     -4.59275    1.98297
  1    53     -4.30116    0.50928
  1    54     -4.09796    0.01167
  1    55     -3.94612    0.00056


Fermi level: -4.35487

No gap

Forces in eV/Ang:
  0 Al   -0.00115    0.00063    0.07965
  1 Al    0.00000   -0.00059    0.08250
  2 Al    0.00115    0.00063    0.07965
  3 Al    0.00123    0.00000    0.08321
  4 Al    0.00000    0.00000    0.07785
  5 Al   -0.00123    0.00000    0.08321
  6 Al   -0.00115   -0.00063    0.07965
  7 Al    0.00000    0.00059    0.08250
  8 Al    0.00115   -0.00063    0.07965
  9 Al    0.00000    0.00000   -0.12101
 10 Al   -0.00133    0.00000   -0.12459
 11 Al    0.00133    0.00000   -0.12459
 12 Al    0.00000    0.00164   -0.12445
 13 Al    0.00080   -0.00112   -0.12128
 14 Al   -0.00080   -0.00112   -0.12128
 15 Al    0.00000   -0.00164   -0.12445
 16 Al    0.00080    0.00112   -0.12128
 17 Al   -0.00080    0.00112   -0.12128
 18 Al   -0.00080    0.00112    0.12127
 19 Al    0.00000   -0.00164    0.12446
 20 Al    0.00080    0.00112    0.12127
 21 Al    0.00133    0.00000    0.12459
 22 Al    0.00000    0.00000    0.12101
 23 Al   -0.00133    0.00000    0.12459
 24 Al   -0.00080   -0.00112    0.12127
 25 Al    0.00000    0.00164    0.12446
 26 Al    0.00080   -0.00112    0.12127
 27 Al    0.00000    0.00000   -0.07786
 28 Al   -0.00123    0.00000   -0.08320
 29 Al    0.00123    0.00000   -0.08320
 30 Al    0.00000    0.00059   -0.08250
 31 Al    0.00115   -0.00063   -0.07964
 32 Al   -0.00115   -0.00063   -0.07964
 33 Al    0.00000   -0.00059   -0.08250
 34 Al    0.00115    0.00063   -0.07964
 35 Al   -0.00115    0.00063   -0.07964

System changes: positions 

Initializing position-dependent things.

Density initialized from wave functions
      .-----------------------------.  
     /|                             |  
    / |                             |  
   /  |                             |  
  /   |                             |  
 *    |                             |  
 |    |                             |  
 |    |                             |  
 |    |                             |  
 |    |                             |  
 |    |                             |  
 |    |                             |  
 |    |                             |  
 |    |                             |  
 |  Al|       Al        Al          |  
 |    |   Al        Al        Al    |  
 | Al |      Al        Al           |  
 Al   |  AlAl      AlAl     Al      |  
 |  Al|Al Al  Al Al Al  Al Al Al    |  
 | Al |      Al        Al           |  
 |    |  Al        Al       Al      |  
 Al   |    Al        Al             |  
 |    |Al        Al        Al       |  
 |    |                             |  
 |    |                             |  
 |    |                             |  
 |    |                             |  
 |    |                             |  
 |    |                             |  
 |    |                             |  
 |    .-----------------------------.  
 |   /                             /   
 |  /                             /    
 | /                             /     
 |/                             /      
 *-----------------------------*       

Positions:
   0 Al     2.024349    1.431773   10.019947    ( 0.0000,  0.0000,  0.0000)
   1 Al     6.075000    1.432186   10.020350    ( 0.0000,  0.0000,  0.0000)
   2 Al    10.125651    1.431773   10.019947    ( 0.0000,  0.0000,  0.0000)
   3 Al     2.025690    4.295674   10.020374    ( 0.0000,  0.0000,  0.0000)
   4 Al     6.075000    4.295674   10.019911    ( 0.0000,  0.0000,  0.0000)
   5 Al    10.124310    4.295674   10.020374    ( 0.0000,  0.0000,  0.0000)
   6 Al     2.024349    7.159575   10.019947    ( 0.0000,  0.0000,  0.0000)
   7 Al     6.075000    7.159161   10.020350    ( 0.0000,  0.0000,  0.0000)
   8 Al    10.125651    7.159575   10.019947    ( 0.0000,  0.0000,  0.0000)
   9 Al     0.000000   -0.000000   11.398755    ( 0.0000,  0.0000,  0.0000)
  10 Al     4.049239   -0.000000   11.398656    ( 0.0000,  0.0000,  0.0000)
  11 Al     8.100761   -0.000000   11.398656    ( 0.0000,  0.0000,  0.0000)
  12 Al     0.000000    2.863483   11.398656    ( 0.0000,  0.0000,  0.0000)
  13 Al     4.050640    2.863916   11.398766    ( 0.0000,  0.0000,  0.0000)
  14 Al     8.099360    2.863916   11.398766    ( 0.0000,  0.0000,  0.0000)
  15 Al    -0.000000    5.727864   11.398656    ( 0.0000,  0.0000,  0.0000)
  16 Al     4.050640    5.727431   11.398766    ( 0.0000,  0.0000,  0.0000)
  17 Al     8.099360    5.727431   11.398766    ( 0.0000,  0.0000,  0.0000)
  18 Al     2.024361    1.431758   12.896908    ( 0.0000,  0.0000,  0.0000)
  19 Al     6.075000    1.432191   12.897017    ( 0.0000,  0.0000,  0.0000)
  20 Al    10.125639    1.431758   12.896908    ( 0.0000,  0.0000,  0.0000)
  21 Al     2.025763    4.295674   12.897018    ( 0.0000,  0.0000,  0.0000)
  22 Al     6.075000    4.295674   12.896919    ( 0.0000,  0.0000,  0.0000)
  23 Al    10.124237    4.295674   12.897018    ( 0.0000,  0.0000,  0.0000)
  24 Al     2.024361    7.159590   12.896908    ( 0.0000,  0.0000,  0.0000)
  25 Al     6.075000    7.159157   12.897017    ( 0.0000,  0.0000,  0.0000)
  26 Al    10.125639    7.159590   12.896908    ( 0.0000,  0.0000,  0.0000)
  27 Al    -0.000000    0.000000   14.275763    ( 0.0000,  0.0000,  0.0000)
  28 Al     4.049311   -0.000000   14.275300    ( 0.0000,  0.0000,  0.0000)
  29 Al     8.100689    0.000000   14.275300    ( 0.0000,  0.0000,  0.0000)
  30 Al     0.000000    2.863488   14.275324    ( 0.0000,  0.0000,  0.0000)
  31 Al     4.050652    2.863901   14.275726    ( 0.0000,  0.0000,  0.0000)
  32 Al     8.099348    2.863901   14.275726    ( 0.0000,  0.0000,  0.0000)
  33 Al     0.000000    5.727859   14.275324    ( 0.0000,  0.0000,  0.0000)
  34 Al     4.050652    5.727446   14.275726    ( 0.0000,  0.0000,  0.0000)
  35 Al     8.099348    5.727446   14.275726    ( 0.0000,  0.0000,  0.0000)

Unit cell:
           periodic     x           y           z      points  spacing
  1. axis:    yes   12.150000    0.000000    0.000000    76     0.1599
  2. axis:    yes    0.000000    8.591347    0.000000    52     0.1652
  3. axis:    no     0.000000    0.000000   24.295674   152     0.1598

  Lengths:  12.150000   8.591347  24.295674
  Angles:   90.000000  90.000000  90.000000

Effective grid spacing dv^(1/3) = 0.1616

     iter     time        total  log10-change:
                         energy  eigst   dens
iter:   1 12:24:02  -994.633046  -1.71
iter:   2 12:27:20  -994.633665  -2.45  -2.55
iter:   3 12:30:25  -994.638552c -1.60  -2.56
iter:   4 12:33:37  -994.632500c -2.46  -2.61
Writing to output.gpw (mode='')

iter:   5 12:36:46  -994.633010c -3.85  -2.99
iter:   6 12:39:52  -994.632821c -3.37  -3.08
iter:   7 12:43:08  -994.633171c -3.87  -3.08
iter:   8 12:46:13  -994.632957c -3.68  -3.77
iter:   9 12:49:15  -994.633111c -3.15  -3.41
Writing to output.gpw (mode='')

iter:  10 12:52:20  -994.632953c -3.92  -2.90
iter:  11 12:55:28  -994.633089c -3.28  -3.17
iter:  12 12:58:32  -994.633185c -3.65  -3.66
iter:  13 13:01:41  -994.633184c -4.53  -4.37c
iter:  14 13:04:44  -994.633191c -4.89  -4.26c
Writing to output.gpw (mode='')

iter:  15 13:07:42  -994.633208c -4.90  -4.13c
iter:  16 13:10:47  -994.633183c -5.72  -3.97
iter:  17 13:13:57  -994.633130c -5.50  -4.04c
iter:  18 13:17:08  -994.633151c -6.10  -4.54c
iter:  19 13:20:10  -994.633149c -6.37  -4.39c
Writing to output.gpw (mode='')

iter:  20 13:23:18  -994.633173c -5.68  -4.40c
iter:  21 13:26:31  -994.633149c -6.16  -4.12c
iter:  22 13:29:34  -994.633129c -5.57  -4.39c
iter:  23 13:32:42  -994.633127c -6.25  -5.25c
iter:  24 13:35:45  -994.633130c -6.92  -5.22c
Writing to output.gpw (mode='')

iter:  25 13:39:00  -994.633136c -7.03  -5.32c
iter:  26 13:42:08  -994.633133c -7.36  -5.19c
iter:  27 13:45:12  -994.633133c -7.56c -5.44c

Converged after 27 iterations.

Dipole moment: (-11.239399, -6.862510, -0.000000) |e|*Ang

Energy contributions relative to reference atoms: (reference = -237723.237536)

Kinetic:        +47.290406
Potential:      -10.100197
External:        +0.000000
XC:            -1031.822443
Entropy (-ST):   -0.118892
Local:           +0.058547
--------------------------
Free energy:   -994.692578
Extrapolated:  -994.633133

Dipole-layer corrected work functions: 4.368150, 4.368150 eV

Showing only first 2 kpts
 Kpt  Band  Eigenvalues  Occupancy
  0    52     -4.48873    1.83540
  0    53     -4.37055    1.02403
  0    54     -4.36507    0.96920
  0    55     -4.33724    0.70034

  1    52     -4.59551    1.97903
  1    53     -4.30614    0.44878
  1    54     -4.13463    0.01856
  1    55     -3.94881    0.00046


Fermi level: -4.36815

No gap
Writing to output.gpw (mode='')


Forces in eV/Ang:
  0 Al    0.00075    0.00152    0.05548
  1 Al    0.00000   -0.00200    0.05848
  2 Al   -0.00075    0.00152    0.05548
  3 Al   -0.00050    0.00000    0.05987
  4 Al    0.00000    0.00000    0.05232
  5 Al    0.00050    0.00000    0.05987
  6 Al    0.00075   -0.00152    0.05548
  7 Al    0.00000    0.00200    0.05848
  8 Al   -0.00075   -0.00152    0.05548
  9 Al    0.00000    0.00000   -0.07524
 10 Al    0.00122    0.00000   -0.08209
 11 Al   -0.00122    0.00000   -0.08209
 12 Al    0.00000    0.00361   -0.08089
 13 Al   -0.00198   -0.00237   -0.07737
 14 Al    0.00198   -0.00237   -0.07737
 15 Al    0.00000   -0.00361   -0.08089
 16 Al   -0.00198    0.00237   -0.07737
 17 Al    0.00198    0.00237   -0.07737
 18 Al    0.00197    0.00237    0.07737
 19 Al    0.00000   -0.00361    0.08089
 20 Al   -0.00197    0.00237    0.07737
 21 Al   -0.00122    0.00000    0.08209
 22 Al    0.00000    0.00000    0.07524
 23 Al    0.00122    0.00000    0.08209
 24 Al    0.00197   -0.00237    0.07737
 25 Al    0.00000    0.00361    0.08089
 26 Al   -0.00197   -0.00237    0.07737
 27 Al    0.00000    0.00000   -0.05233
 28 Al    0.00049    0.00000   -0.05987
 29 Al   -0.00049    0.00000   -0.05987
 30 Al    0.00000    0.00200   -0.05849
 31 Al   -0.00076   -0.00152   -0.05547
 32 Al    0.00076   -0.00152   -0.05547
 33 Al    0.00000   -0.00200   -0.05849
 34 Al   -0.00076    0.00152   -0.05547
 35 Al    0.00076    0.00152   -0.05547

System changes: positions 

Initializing position-dependent things.

Density initialized from wave functions
      .-----------------------------.  
     /|                             |  
    / |                             |  
   /  |                             |  
  /   |                             |  
 *    |                             |  
 |    |                             |  
 |    |                             |  
 |    |                             |  
 |    |                             |  
 |    |                             |  
 |    |                             |  
 |    |                             |  
 |    |                             |  
 |  Al|       Al        Al          |  
 |    |   Al        Al        Al    |  
 | Al |      Al        Al           |  
 Al   |  AlAl      AlAl     Al      |  
 |  Al|Al Al  Al Al Al  Al Al Al    |  
 | Al |      Al        Al           |  
 |    |  Al        Al       Al      |  
 Al   |    Al        Al             |  
 |    |Al        Al        Al       |  
 |    |                             |  
 |    |                             |  
 |    |                             |  
 |    |                             |  
 |    |                             |  
 |    |                             |  
 |    |                             |  
 |    .-----------------------------.  
 |   /                             /   
 |  /                             /    
 | /                             /     
 |/                             /      
 *-----------------------------*       

Positions:
   0 Al     2.024203    1.431776   10.026082    ( 0.0000,  0.0000,  0.0000)
   1 Al     6.075000    1.432216   10.026650    ( 0.0000,  0.0000,  0.0000)
   2 Al    10.125797    1.431776   10.026082    ( 0.0000,  0.0000,  0.0000)
   3 Al     2.025850    4.295674   10.026710    ( 0.0000,  0.0000,  0.0000)
   4 Al     6.075000    4.295674   10.025969    ( 0.0000,  0.0000,  0.0000)
   5 Al    10.124150    4.295674   10.026710    ( 0.0000,  0.0000,  0.0000)
   6 Al     2.024203    7.159571   10.026082    ( 0.0000,  0.0000,  0.0000)
   7 Al     6.075000    7.159132   10.026650    ( 0.0000,  0.0000,  0.0000)
   8 Al    10.125797    7.159571   10.026082    ( 0.0000,  0.0000,  0.0000)
   9 Al     0.000000   -0.000000   11.388929    ( 0.0000,  0.0000,  0.0000)
  10 Al     4.049076   -0.000000   11.388657    ( 0.0000,  0.0000,  0.0000)
  11 Al     8.100924   -0.000000   11.388657    ( 0.0000,  0.0000,  0.0000)
  12 Al     0.000000    2.863487   11.388683    ( 0.0000,  0.0000,  0.0000)
  13 Al     4.050756    2.863899   11.388896    ( 0.0000,  0.0000,  0.0000)
  14 Al     8.099244    2.863899   11.388896    ( 0.0000,  0.0000,  0.0000)
  15 Al    -0.000000    5.727860   11.388683    ( 0.0000,  0.0000,  0.0000)
  16 Al     4.050756    5.727449   11.388896    ( 0.0000,  0.0000,  0.0000)
  17 Al     8.099244    5.727449   11.388896    ( 0.0000,  0.0000,  0.0000)
  18 Al     2.024246    1.431776   12.906778    ( 0.0000,  0.0000,  0.0000)
  19 Al     6.075000    1.432187   12.906990    ( 0.0000,  0.0000,  0.0000)
  20 Al    10.125754    1.431776   12.906778    ( 0.0000,  0.0000,  0.0000)
  21 Al     2.025926    4.295674   12.907017    ( 0.0000,  0.0000,  0.0000)
  22 Al     6.075000    4.295674   12.906745    ( 0.0000,  0.0000,  0.0000)
  23 Al    10.124074    4.295674   12.907017    ( 0.0000,  0.0000,  0.0000)
  24 Al     2.024246    7.159572   12.906778    ( 0.0000,  0.0000,  0.0000)
  25 Al     6.075000    7.159160   12.906990    ( 0.0000,  0.0000,  0.0000)
  26 Al    10.125754    7.159572   12.906778    ( 0.0000,  0.0000,  0.0000)
  27 Al    -0.000000    0.000000   14.269705    ( 0.0000,  0.0000,  0.0000)
  28 Al     4.049152   -0.000000   14.268964    ( 0.0000,  0.0000,  0.0000)
  29 Al     8.100848    0.000000   14.268964    ( 0.0000,  0.0000,  0.0000)
  30 Al     0.000000    2.863458   14.269024    ( 0.0000,  0.0000,  0.0000)
  31 Al     4.050798    2.863898   14.269591    ( 0.0000,  0.0000,  0.0000)
  32 Al     8.099202    2.863898   14.269591    ( 0.0000,  0.0000,  0.0000)
  33 Al     0.000000    5.727889   14.269024    ( 0.0000,  0.0000,  0.0000)
  34 Al     4.050798    5.727449   14.269591    ( 0.0000,  0.0000,  0.0000)
  35 Al     8.099202    5.727449   14.269591    ( 0.0000,  0.0000,  0.0000)

Unit cell:
           periodic     x           y           z      points  spacing
  1. axis:    yes   12.150000    0.000000    0.000000    76     0.1599
  2. axis:    yes    0.000000    8.591347    0.000000    52     0.1652
  3. axis:    no     0.000000    0.000000   24.295674   152     0.1598

  Lengths:  12.150000   8.591347  24.295674
  Angles:   90.000000  90.000000  90.000000

Effective grid spacing dv^(1/3) = 0.1616

     iter     time        total  log10-change:
                         energy  eigst   dens
iter:   1 13:49:01  -994.648810  -1.71
iter:   2 13:52:08  -994.649508  -2.44  -2.55
iter:   3 13:55:19  -994.654492c -1.62  -2.56
iter:   4 13:58:18  -994.648526c -2.49  -2.64
Writing to output.gpw (mode='')

iter:   5 14:01:23  -994.649156c -3.86  -2.99
iter:   6 14:04:20  -994.648907c -3.47  -3.08
iter:   7 14:07:29  -994.649298c -3.88  -3.11
iter:   8 14:10:29  -994.649113c -4.04  -3.79
iter:   9 14:13:30  -994.649037c -3.31  -3.61
Writing to output.gpw (mode='')

iter:  10 14:16:39  -994.649035c -4.35  -3.04
iter:  11 14:19:43  -994.649220c -3.49  -3.21
iter:  12 14:22:37  -994.649217c -4.55  -3.92
iter:  13 14:25:30  -994.649295c -4.42  -4.01c
iter:  14 14:28:28  -994.649319c -4.95  -4.23c
Writing to output.gpw (mode='')

iter:  15 14:31:36  -994.649304c -5.61  -4.02c
iter:  16 14:34:36  -994.649257c -5.73  -4.05c
iter:  17 14:37:35  -994.649247c -5.84  -4.35c
iter:  18 14:40:38  -994.649255c -6.37  -4.47c
iter:  19 14:43:37  -994.649263c -6.44  -4.47c
Writing to output.gpw (mode='')

iter:  20 14:46:45  -994.649267c -6.49  -4.46c
iter:  21 14:49:52  -994.649240c -6.30  -4.41c
iter:  22 14:52:51  -994.649242c -6.91  -4.75c
iter:  23 14:55:53  -994.649252c -6.69  -4.81c
iter:  24 14:58:56  -994.649244c -6.94  -4.97c
Writing to output.gpw (mode='')

iter:  25 15:02:09  -994.649243c -7.02  -5.32c
iter:  26 15:05:16  -994.649248c -7.20  -5.37c
iter:  27 15:08:17  -994.649245c -7.56c -5.36c

Converged after 27 iterations.

Dipole moment: (-11.243250, -6.862526, -0.000000) |e|*Ang

Energy contributions relative to reference atoms: (reference = -237723.237536)

Kinetic:        +48.558735
Potential:      -11.049598
External:        +0.000000
XC:            -1032.157158
Entropy (-ST):   -0.117232
Local:           +0.057392
--------------------------
Free energy:   -994.707861
Extrapolated:  -994.649245

Dipole-layer corrected work functions: 4.381580, 4.381580 eV

Showing only first 2 kpts
 Kpt  Band  Eigenvalues  Occupancy
  0    52     -4.50583    1.84616
  0    53     -4.40154    1.19701
  0    54     -4.37453    0.92963
  0    55     -4.34411    0.64188

  1    52     -4.59806    1.97400
  1    53     -4.31107    0.39243
  1    54     -4.17129    0.02938
  1    55     -3.95165    0.00037


Fermi level: -4.38158

No gap
Writing to output.gpw (mode='')


Forces in eV/Ang:
  0 Al    0.00223    0.00224    0.03137
  1 Al    0.00000   -0.00306    0.03477
  2 Al   -0.00223    0.00224    0.03137
  3 Al   -0.00198    0.00000    0.03635
  4 Al    0.00000    0.00000    0.02687
  5 Al    0.00198    0.00000    0.03635
  6 Al    0.00223   -0.00224    0.03137
  7 Al    0.00000    0.00306    0.03477
  8 Al   -0.00223   -0.00224    0.03137
  9 Al    0.00000    0.00000   -0.03000
 10 Al    0.00339    0.00000   -0.04022
 11 Al   -0.00339    0.00000   -0.04022
 12 Al    0.00000    0.00503   -0.03885
 13 Al   -0.00392   -0.00330   -0.03451
 14 Al    0.00392   -0.00330   -0.03451
 15 Al    0.00000   -0.00503   -0.03885
 16 Al   -0.00392    0.00330   -0.03451
 17 Al    0.00392    0.00330   -0.03451
 18 Al    0.00392    0.00331    0.03451
 19 Al    0.00000   -0.00502    0.03885
 20 Al   -0.00392    0.00331    0.03451
 21 Al   -0.00339    0.00000    0.04022
 22 Al    0.00000    0.00000    0.03000
 23 Al    0.00339    0.00000    0.04022
 24 Al    0.00392   -0.00331    0.03451
 25 Al    0.00000    0.00502    0.03885
 26 Al   -0.00392   -0.00331    0.03451
 27 Al    0.00000    0.00000   -0.02687
 28 Al    0.00197    0.00000   -0.03635
 29 Al   -0.00197    0.00000   -0.03635
 30 Al    0.00000    0.00307   -0.03477
 31 Al   -0.00224   -0.00223   -0.03137
 32 Al    0.00224   -0.00223   -0.03137
 33 Al    0.00000   -0.00307   -0.03477
 34 Al   -0.00224    0.00223   -0.03137
 35 Al    0.00224    0.00223   -0.03137

Timing:                                      incl.     excl.
-------------------------------------------------------------------
Density initialized from wave functions:     9.259     6.369   0.0% |
 Symmetrize density:                         2.890     2.890   0.0% |
Forces:                                     64.659    64.659   0.2% |
Hamiltonian:                               756.634     0.001   0.0% |
 Atomic:                                     1.645     0.251   0.0% |
  XC Correction:                             1.394     1.394   0.0% |
 Calculate atomic Hamiltonians:              2.325     2.325   0.0% |
 Communicate:                                3.319     3.319   0.0% |
 Hartree integrate/restrict:                 0.985     0.985   0.0% |
 Initialize Hamiltonian:                     0.000     0.000   0.0% |
 Poisson:                                   14.238     6.061   0.0% |
  Communicate from 1D:                       1.622     1.622   0.0% |
  Communicate from 2D:                       1.855     1.855   0.0% |
  Communicate to 1D:                         0.585     0.585   0.0% |
  Communicate to 2D:                         1.544     1.544   0.0% |
  FFT 1D:                                    1.191     1.191   0.0% |
  FFT 2D:                                    1.381     1.381   0.0% |
 XC 3D grid:                               733.960    35.744   0.1% |
  VdW-DF integral:                         698.216     1.315   0.0% |
   Convolution:                             36.651    36.651   0.1% |
   FFT:                                      6.812     6.812   0.0% |
   gather:                                 571.056   571.056   1.8% ||
   hmm1:                                     5.210     5.210   0.0% |
   hmm2:                                     7.335     7.335   0.0% |
   iFFT:                                     7.145     7.145   0.0% |
   potential:                               48.463     0.330   0.0% |
    collect:                                 6.335     6.335   0.0% |
    p1:                                     17.875    17.875   0.1% |
    p2:                                     11.760    11.760   0.0% |
    sum:                                    12.162    12.162   0.0% |
   splines:                                 14.229    14.229   0.0% |
 vbar:                                       0.161     0.161   0.0% |
LCAO initialization:                         8.348     0.040   0.0% |
 LCAO eigensolver:                           2.192     0.001   0.0% |
  Calculate projections:                     0.000     0.000   0.0% |
  DenseAtomicCorrection:                     0.000     0.000   0.0% |
  Distribute overlap matrix:                 2.048     2.048   0.0% |
  Orbital Layouts:                           0.104     0.104   0.0% |
  Potential matrix:                          0.037     0.037   0.0% |
  Sum over cells:                            0.002     0.002   0.0% |
 LCAO to grid:                               4.733     4.733   0.0% |
 Set positions (LCAO WFS):                   1.382     1.098   0.0% |
  Basic WFS set positions:                   0.011     0.011   0.0% |
  Basis functions set positions:             0.000     0.000   0.0% |
  P tci:                                     0.000     0.000   0.0% |
  ST tci:                                    0.141     0.141   0.0% |
  mktci:                                     0.132     0.132   0.0% |
Redistribute:                                0.005     0.005   0.0% |
SCF-cycle:                               31164.273   373.226   1.2% |
 Davidson:                               10652.235  4154.672  12.9% |----|
  Apply hamiltonian:                       488.288   488.288   1.5% ||
  Subspace diag:                          1236.454     0.034   0.0% |
   calc_h_matrix:                          718.026   244.655   0.8% |
    Apply hamiltonian:                     473.371   473.371   1.5% ||
   diagonalize:                             68.261    68.261   0.2% |
   rotate_psi:                             450.132   450.132   1.4% ||
  calc. matrices:                         3817.928  1872.637   5.8% |-|
   Apply hamiltonian:                     1945.292  1945.292   6.1% |-|
  diagonalize:                              12.367    12.367   0.0% |
  rotate_psi:                              942.526   942.526   2.9% ||
 Density:                                  208.371     0.006   0.0% |
  Atomic density matrices:                  29.974    29.974   0.1% |
  Mix:                                      35.342    35.342   0.1% |
  Multipole moments:                         0.450     0.450   0.0% |
  Pseudo density:                          142.598    53.512   0.2% |
   Symmetrize density:                      89.087    89.087   0.3% |
 Hamiltonian:                            19900.489     0.045   0.0% |
  Atomic:                                   47.154     9.814   0.0% |
   XC Correction:                           37.340    37.340   0.1% |
  Calculate atomic Hamiltonians:            53.356    53.356   0.2% |
  Communicate:                              65.684    65.684   0.2% |
  Hartree integrate/restrict:               24.388    24.388   0.1% |
  Poisson:                                 405.364   170.311   0.5% |
   Communicate from 1D:                     46.559    46.559   0.1% |
   Communicate from 2D:                     47.897    47.897   0.1% |
   Communicate to 1D:                       14.603    14.603   0.0% |
   Communicate to 2D:                       45.143    45.143   0.1% |
   FFT 1D:                                  38.458    38.458   0.1% |
   FFT 2D:                                  42.393    42.393   0.1% |
  XC 3D grid:                            19300.913  1019.208   3.2% ||
   VdW-DF integral:                      18281.705    39.111   0.1% |
    Convolution:                          1034.966  1034.966   3.2% ||
    FFT:                                   203.642   203.642   0.6% |
    gather:                              15051.417 15051.417  46.8% |------------------|
    hmm1:                                  162.428   162.428   0.5% |
    hmm2:                                  232.796   232.796   0.7% |
    iFFT:                                  191.292   191.292   0.6% |
    potential:                            1366.052     9.834   0.0% |
     collect:                              186.965   186.965   0.6% |
     p1:                                   490.422   490.422   1.5% ||
     p2:                                   332.112   332.112   1.0% |
     sum:                                  346.718   346.718   1.1% |
    splines:                                 0.001     0.001   0.0% |
  vbar:                                      3.585     3.585   0.0% |
 Orthonormalize:                            29.953     0.002   0.0% |
  calc_s_matrix:                             3.844     3.844   0.0% |
  inverse-cholesky:                         17.511    17.511   0.1% |
  projections:                               0.000     0.000   0.0% |
  rotate_psi_s:                              8.596     8.596   0.0% |
Set symmetry:                                0.007     0.007   0.0% |
Other:                                     124.537   124.537   0.4% |
-------------------------------------------------------------------
Total:                                             32127.721 100.0%

Memory usage: 1.41 GiB
Date: Tue Jan 17 15:08:29 2023
