
  ___ ___ ___ _ _ _  
 |   |   |_  | | | | 
 | | | | | . | | | | 
 |__ |  _|___|_____|  22.8.0
 |___|_|             

User:   vazumah@c20.hercules
Date:   Wed Jan 18 17:04:00 2023
Arch:   x86_64
Pid:    10802
CWD:    /home/vazumah/Python_projects/LiNRR/autocad_start/slab_experiments/free_slabs/Li/bcc110/substrate
Python: 3.10.8
gpaw:   /home/vazumah/.conda/envs/GPAW/lib/python3.10/site-packages/gpaw
_gpaw:  /home/vazumah/.conda/envs/GPAW/lib/python3.10/site-packages/
        _gpaw.cpython-310-x86_64-linux-gnu.so
ase:    /home/vazumah/.conda/envs/GPAW/lib/python3.10/site-packages/ase (version 3.22.1)
numpy:  /home/vazumah/.conda/envs/GPAW/lib/python3.10/site-packages/numpy (version 1.24.1)
scipy:  /home/vazumah/.conda/envs/GPAW/lib/python3.10/site-packages/scipy (version 1.10.0)
libxc:  5.2.3
units:  Angstrom and eV
cores: 24
OpenMP: True
OMP_NUM_THREADS: 1

Input parameters:
  h: 0.16
  kpts: {size: [2, 2, 1]}
  maxiter: 999
  occupations: {name: fermi-dirac,
                width: 0.05}
  poissonsolver: {dipolelayer: xy}
  xc: BEEF-vdW

System changes: positions, numbers, cell, pbc, initial_charges, initial_magmoms 

Initialize ...

species:
  Li:
    name: Lithium
    id: 830b4218f175192f93f959cfc0aad614
    Z: 3.0
    valence: 1
    core: 2
    charge: 0.0
    file: /home/vazumah/.conda/envs/GPAW/share/gpaw/Li.PBE.gz
    compensation charges: {type: gauss,
                           rc: 0.33,
                           lmax: 2}
    cutoffs: {filter: 1.91,
              core: 2.55}
    valence states:
      #              energy  rcut
      - 2s(1.00)    -2.874   1.058
      - 2p(0.00)    -1.090   1.058
      -  s          24.337   1.058
  
    # Using partial waves for Li as LCAO basis

Reference energy: -7300.361529  # eV

Spin-paired calculation

Convergence criteria:
 Maximum [total energy] change in last 3 cyles: 0.0005 eV / electron
 Maximum integral of absolute [dens]ity change: 0.0001 electrons / valence electron
 Maximum integral of absolute [eigenst]ate change: 4e-08 eV^2 / valence electron
 Maximum number of scf [iter]ations: 999
 (Square brackets indicate name in SCF output, whereas a 'c' in
 the SCF output indicates the quantity has converged.)

Symmetries present (total): 4

  ( 1  0  0)  ( 1  0  0)  (-1  0  0)  (-1  0  0)
  ( 1 -1  0)  ( 0  1  0)  ( 0 -1  0)  (-1  1  0)
  ( 0  0  1)  ( 0  0  1)  ( 0  0  1)  ( 0  0  1)
Note: your k-points are not as symmetric as your crystal!

4 k-points: 2 x 2 x 1 Monkhorst-Pack grid
2 k-points in the irreducible part of the Brillouin zone
       k-points in crystal coordinates                weights
   0:     0.25000000   -0.25000000    0.00000000          2/4
   1:     0.25000000    0.25000000    0.00000000          2/4

Wave functions: Uniform real-space grid
  Kinetic energy operator: 8*3+1=25 point O(h^6) finite-difference Laplacian
  ScaLapack parameters: grid=1x1, blocksize=None
  Wavefunction extrapolation:
    Improved wavefunction reuse through dual PAW basis 

Occupation numbers: Fermi-Dirac:
  width: 0.0500  # eV
 

Eigensolver
   Davidson(niter=2) 

Densities:
  Coarse grid: 48*48*168 grid
  Fine grid: 96*96*336 grid
  Total Charge: 0.000000 

Density mixing:
  Method: separate
  Backend: pulay
  Linear mixing parameter: 0.05
  old densities: 5
  Damping of long wavelength oscillations: 50 

Hamiltonian:
  XC and Coulomb potentials evaluated on a 96*96*336 grid
  Using the BEEF-vdW Exchange-Correlation functional
  Interpolation: tri-quintic (5. degree polynomial)
  Poisson solver: FastPoissonSolver using
    Stencil: 8*3+1=25 point O(h^6) finite-difference Laplacian
    FFT axes: [0, 1]
    FST axes: [2]

Dipole correction along z-axis 

XC parameters: BEEF-vdW with 2 nearest neighbor stencil

Memory estimate:
  Process memory now: 99.85 MiB
  Calculator: 56.30 MiB
    Density: 23.17 MiB
      Arrays: 6.28 MiB
      Localized functions: 14.52 MiB
      Mixer: 2.37 MiB
    Hamiltonian: 5.25 MiB
      Arrays: 4.10 MiB
      XC: 0.00 MiB
      Poisson: 0.00 MiB
      vbar: 1.15 MiB
    Wavefunctions: 27.88 MiB
      Arrays psit_nG: 12.34 MiB
      Eigensolver: 14.82 MiB
      Projections: 0.01 MiB
      Projectors: 0.72 MiB

Total number of cores used: 24
Parallelization over k-points: 2
Domain decomposition: 1 x 2 x 6

Number of atoms: 36
Number of atomic orbitals: 144
Number of bands in calculation: 26
Number of valence electrons: 36
Bands to converge: occupied

... initialized

Initializing position-dependent things.

Density initialized from atomic densities
Creating initial wave functions:
  26 bands from LCAO basis set

                                             
                                             
                                             
                                             
                                             
                  Li      Li      Li         
                    Li      Li      Li       
             Li      Li      Li              
       Li     LLi     LLi     Li             
         Li      Li      Li                  
                                             
                  Li      Li      Li         
             Li     LLi     LLi     Li       
              Li      Li      Li             
       Li      Li      Li                    
         Li      Li      Li                  
                                             
                                             
                                             
                                             
                                             

Positions:
   0 Li     0.000000    2.286836   10.000000    ( 0.0000,  0.0000,  0.0000)
   1 Li     3.234074    2.286836   10.000000    ( 0.0000,  0.0000,  0.0000)
   2 Li     6.468148    2.286836   10.000000    ( 0.0000,  0.0000,  0.0000)
   3 Li     1.617037    4.573671   10.000000    ( 0.0000,  0.0000,  0.0000)
   4 Li     4.851111    4.573671   10.000000    ( 0.0000,  0.0000,  0.0000)
   5 Li     8.085185    4.573671   10.000000    ( 0.0000,  0.0000,  0.0000)
   6 Li     3.234074    6.860507   10.000000    ( 0.0000,  0.0000,  0.0000)
   7 Li     6.468148    6.860507   10.000000    ( 0.0000,  0.0000,  0.0000)
   8 Li     9.702222    6.860507   10.000000    ( 0.0000,  0.0000,  0.0000)
   9 Li     0.000000    0.000000   12.286836    ( 0.0000,  0.0000,  0.0000)
  10 Li     3.234074    0.000000   12.286836    ( 0.0000,  0.0000,  0.0000)
  11 Li     6.468148    0.000000   12.286836    ( 0.0000,  0.0000,  0.0000)
  12 Li     1.617037    2.286836   12.286836    ( 0.0000,  0.0000,  0.0000)
  13 Li     4.851111    2.286836   12.286836    ( 0.0000,  0.0000,  0.0000)
  14 Li     8.085185    2.286836   12.286836    ( 0.0000,  0.0000,  0.0000)
  15 Li     3.234074    4.573671   12.286836    ( 0.0000,  0.0000,  0.0000)
  16 Li     6.468148    4.573671   12.286836    ( 0.0000,  0.0000,  0.0000)
  17 Li     9.702222    4.573671   12.286836    ( 0.0000,  0.0000,  0.0000)
  18 Li     0.000000    2.286836   14.573671    ( 0.0000,  0.0000,  0.0000)
  19 Li     3.234074    2.286836   14.573671    ( 0.0000,  0.0000,  0.0000)
  20 Li     6.468148    2.286836   14.573671    ( 0.0000,  0.0000,  0.0000)
  21 Li     1.617037    4.573671   14.573671    ( 0.0000,  0.0000,  0.0000)
  22 Li     4.851111    4.573671   14.573671    ( 0.0000,  0.0000,  0.0000)
  23 Li     8.085185    4.573671   14.573671    ( 0.0000,  0.0000,  0.0000)
  24 Li     3.234074    6.860507   14.573671    ( 0.0000,  0.0000,  0.0000)
  25 Li     6.468148    6.860507   14.573671    ( 0.0000,  0.0000,  0.0000)
  26 Li     9.702222    6.860507   14.573671    ( 0.0000,  0.0000,  0.0000)
  27 Li     0.000000    0.000000   16.860507    ( 0.0000,  0.0000,  0.0000)
  28 Li     3.234074    0.000000   16.860507    ( 0.0000,  0.0000,  0.0000)
  29 Li     6.468148    0.000000   16.860507    ( 0.0000,  0.0000,  0.0000)
  30 Li     1.617037    2.286836   16.860507    ( 0.0000,  0.0000,  0.0000)
  31 Li     4.851111    2.286836   16.860507    ( 0.0000,  0.0000,  0.0000)
  32 Li     8.085185    2.286836   16.860507    ( 0.0000,  0.0000,  0.0000)
  33 Li     3.234074    4.573671   16.860507    ( 0.0000,  0.0000,  0.0000)
  34 Li     6.468148    4.573671   16.860507    ( 0.0000,  0.0000,  0.0000)
  35 Li     9.702222    4.573671   16.860507    ( 0.0000,  0.0000,  0.0000)

Unit cell:
           periodic     x           y           z      points  spacing
  1. axis:    yes    9.702222    0.000000    0.000000    48     0.1650
  2. axis:    yes    4.851111    6.860507    0.000000    48     0.1429
  3. axis:    no     0.000000    0.000000   26.860507   168     0.1599

  Lengths:   9.702222   8.402371  26.860507
  Angles:   90.000000  90.000000  54.735610

Effective grid spacing dv^(1/3) = 0.1665

     iter     time        total  log10-change:
                         energy  eigst   dens
iter:   1 17:05:48  -202.419831
iter:   2 17:07:09  -198.465839  +0.59  -0.49
iter:   3 17:08:31  -196.744385  +1.46  -0.60
iter:   4 17:10:01  -199.520592  +0.45  -0.76
Writing to output.gpw (mode='')

iter:   5 17:11:30  -198.575774  +0.44  -0.63
iter:   6 17:12:58  -195.843359  +1.13  -0.63
iter:   7 17:14:34  -196.514518  +0.58  -0.97
iter:   8 17:16:01  -195.806711  -0.77  -0.85
iter:   9 17:17:21  -198.071437  +0.95  -0.96
Writing to output.gpw (mode='')

iter:  10 17:18:36  -197.712346  +0.10  -0.69
iter:  11 17:18:51  -195.209889  +0.95  -0.69
iter:  12 17:19:06  -195.241904  -0.51  -1.34
iter:  13 17:19:21  -195.287238  -0.69  -1.36
iter:  14 17:19:36  -195.179159  -0.02  -1.27
Writing to output.gpw (mode='')

iter:  15 17:19:52  -195.197228  -0.30  -1.66
iter:  16 17:20:07  -195.195426  -1.12  -1.73
iter:  17 17:20:23  -195.138340  -0.94  -1.58
iter:  18 17:20:38  -195.144379  -0.82  -2.19
iter:  19 17:20:53  -195.143713c -1.94  -2.07
Writing to output.gpw (mode='')

iter:  20 17:21:09  -195.162181  -0.92  -2.17
iter:  21 17:21:24  -195.164502  -1.51  -1.72
iter:  22 17:21:40  -195.178267c -1.34  -1.64
iter:  23 17:21:55  -195.171480c -2.19  -1.55
iter:  24 17:22:10  -195.138976  -1.33  -1.58
Writing to output.gpw (mode='')

iter:  25 17:22:28  -195.141350  -1.07  -2.05
iter:  26 17:22:44  -195.141098c -1.80  -2.33
iter:  27 17:22:59  -195.140052c -2.71  -2.40
iter:  28 17:23:14  -195.140136c -3.10  -2.37
iter:  29 17:23:29  -195.140643c -2.39  -2.49
Writing to output.gpw (mode='')

iter:  30 17:23:45  -195.144417c -2.11  -2.56
iter:  31 17:24:01  -195.139947c -2.03  -1.98
iter:  32 17:24:16  -195.140190c -2.23  -2.70
iter:  33 17:24:31  -195.140245c -3.30  -2.72
iter:  34 17:24:47  -195.141291c -2.02  -2.71
Writing to output.gpw (mode='')

iter:  35 17:25:03  -195.141323c -2.51  -2.42
iter:  36 17:25:18  -195.141781c -2.48  -2.38
iter:  37 17:25:33  -195.141478c -3.24  -2.33
iter:  38 17:25:49  -195.139969c -2.67  -2.39
iter:  39 17:26:04  -195.140010c -2.71  -3.20
Writing to output.gpw (mode='')

iter:  40 17:26:20  -195.140065c -4.04  -3.05
iter:  41 17:26:35  -195.140102c -4.37  -3.50
iter:  42 17:26:50  -195.140102c -4.52  -3.55
iter:  43 17:27:06  -195.140082c -4.20  -3.57
iter:  44 17:27:21  -195.140113c -4.62  -3.63
Writing to output.gpw (mode='')

iter:  45 17:27:39  -195.140112c -4.70  -3.65
iter:  46 17:27:55  -195.140110c -4.61  -3.73
iter:  47 17:28:10  -195.140128c -4.72  -3.71
iter:  48 17:28:25  -195.140136c -4.78  -3.89
iter:  49 17:28:41  -195.140140c -4.97  -3.95
Writing to output.gpw (mode='')

iter:  50 17:28:57  -195.140137c -5.19  -3.99
iter:  51 17:29:12  -195.140151c -5.07  -3.95
iter:  52 17:29:27  -195.140144c -5.33  -4.24c
iter:  53 17:29:43  -195.140132c -5.39  -4.37c
iter:  54 17:29:58  -195.140141c -5.33  -4.42c
Writing to output.gpw (mode='')

iter:  55 17:30:14  -195.140134c -5.46  -4.23c
iter:  56 17:30:29  -195.140135c -5.44  -4.59c
iter:  57 17:30:45  -195.140137c -5.65  -4.60c
iter:  58 17:31:00  -195.140138c -5.71  -4.67c
iter:  59 17:31:15  -195.140137c -5.78  -4.75c
Writing to output.gpw (mode='')

iter:  60 17:31:31  -195.140136c -5.83  -4.87c
iter:  61 17:31:46  -195.140136c -5.85  -4.98c
iter:  62 17:32:02  -195.140135c -5.92  -5.23c
iter:  63 17:32:17  -195.140135c -5.89  -5.34c
iter:  64 17:32:32  -195.140135c -6.03  -5.40c
Writing to output.gpw (mode='')

iter:  65 17:32:48  -195.140135c -6.01  -5.43c
iter:  66 17:33:04  -195.140135c -6.18  -5.47c
iter:  67 17:33:19  -195.140134c -6.27  -5.61c
iter:  68 17:33:34  -195.140134c -6.31  -5.44c
iter:  69 17:33:50  -195.140134c -6.36  -5.38c
Writing to output.gpw (mode='')

iter:  70 17:34:06  -195.140134c -6.40  -5.56c
iter:  71 17:34:21  -195.140135c -6.05  -5.51c
iter:  72 17:34:36  -195.140135c -6.53  -5.38c
iter:  73 17:34:52  -195.140135c -6.46  -5.36c
iter:  74 17:35:07  -195.140135c -6.78  -5.31c
Writing to output.gpw (mode='')

iter:  75 17:35:23  -195.140135c -6.85  -5.38c
iter:  76 17:35:38  -195.140135c -6.58  -5.45c
iter:  77 17:35:53  -195.140135c -6.90  -5.29c
iter:  78 17:36:09  -195.140135c -6.54  -5.26c
iter:  79 17:36:24  -195.140135c -7.03  -5.21c
Writing to output.gpw (mode='')

iter:  80 17:36:43  -195.140135c -7.19  -5.18c
iter:  81 17:36:58  -195.140135c -7.19  -5.28c
iter:  82 17:37:13  -195.140134c -7.24  -5.19c
iter:  83 17:37:29  -195.140134c -7.42c -5.53c

Converged after 83 iterations.

Dipole moment: (-5.410331, -4.119732, 0.000003) |e|*Ang

Energy contributions relative to reference atoms: (reference = -7300.361529)

Kinetic:       +107.322266
Potential:      -83.543000
External:        +0.000000
XC:            -218.547803
Entropy (-ST):   -0.190219
Local:           -0.276487
--------------------------
Free energy:   -195.235244
Extrapolated:  -195.140134

Dipole-layer corrected work functions: 3.606162, 3.606154 eV

Showing all kpts
 Kpt  Band  Eigenvalues  Occupancy
  0    16     -3.67093    1.57012
  0    17     -3.48983    0.17789
  0    18     -3.48245    0.15537
  0    19     -3.31996    0.00651

  1    16     -3.98253    1.99892
  1    17     -3.69236    1.69730
  1    18     -3.68531    1.65926
  1    19     -3.58018    0.74586


Fermi level: -3.60616

No gap
Writing to output.gpw (mode='')


Forces in eV/Ang:
  0 Li    0.00000    0.00000   -0.08066
  1 Li    0.00000    0.00000   -0.08066
  2 Li   -0.00000    0.00000   -0.08066
  3 Li   -0.00000   -0.00000   -0.08066
  4 Li    0.00000   -0.00000   -0.08066
  5 Li    0.00000   -0.00000   -0.08066
  6 Li   -0.00000    0.00000   -0.08066
  7 Li    0.00000    0.00000   -0.08066
  8 Li    0.00000    0.00000   -0.08066
  9 Li    0.00000    0.00000   -0.04318
 10 Li   -0.00000    0.00000   -0.04318
 11 Li    0.00000    0.00000   -0.04318
 12 Li   -0.00000   -0.00000   -0.04318
 13 Li    0.00000    0.00000   -0.04318
 14 Li    0.00000   -0.00000   -0.04318
 15 Li    0.00000    0.00000   -0.04318
 16 Li   -0.00000    0.00000   -0.04318
 17 Li    0.00000   -0.00000   -0.04318
 18 Li    0.00000    0.00000    0.04318
 19 Li    0.00000   -0.00000    0.04318
 20 Li   -0.00000   -0.00000    0.04318
 21 Li   -0.00000    0.00000    0.04318
 22 Li    0.00000   -0.00000    0.04318
 23 Li    0.00000    0.00000    0.04318
 24 Li   -0.00000    0.00000    0.04318
 25 Li    0.00000    0.00000    0.04318
 26 Li    0.00000    0.00000    0.04318
 27 Li    0.00000    0.00000    0.08066
 28 Li   -0.00000    0.00000    0.08066
 29 Li    0.00000    0.00000    0.08066
 30 Li   -0.00000   -0.00000    0.08066
 31 Li    0.00000    0.00000    0.08066
 32 Li    0.00000   -0.00000    0.08066
 33 Li    0.00000    0.00000    0.08066
 34 Li   -0.00000    0.00000    0.08066
 35 Li    0.00000   -0.00000    0.08066

System changes: positions 

Initializing position-dependent things.

Density initialized from wave functions
                                             
                                             
                                             
                                             
                                             
                  Li      Li      Li         
                    Li      Li      Li       
             Li      Li      Li              
       Li     LLi     LLi     Li             
         Li      Li      Li                  
                                             
                  Li      Li      Li         
             Li     LLi     LLi     Li       
              Li      Li      Li             
       Li      Li      Li                    
         Li      Li      Li                  
                                             
                                             
                                             
                                             
                                             

Positions:
   0 Li     0.000000    2.286836    9.998848    ( 0.0000,  0.0000,  0.0000)
   1 Li     3.234074    2.286836    9.998848    ( 0.0000,  0.0000,  0.0000)
   2 Li     6.468148    2.286836    9.998848    ( 0.0000,  0.0000,  0.0000)
   3 Li     1.617037    4.573671    9.998848    ( 0.0000,  0.0000,  0.0000)
   4 Li     4.851111    4.573671    9.998848    ( 0.0000,  0.0000,  0.0000)
   5 Li     8.085185    4.573671    9.998848    ( 0.0000,  0.0000,  0.0000)
   6 Li     3.234074    6.860507    9.998848    ( 0.0000,  0.0000,  0.0000)
   7 Li     6.468148    6.860507    9.998848    ( 0.0000,  0.0000,  0.0000)
   8 Li     9.702222    6.860507    9.998848    ( 0.0000,  0.0000,  0.0000)
   9 Li     0.000000    0.000000   12.286219    ( 0.0000,  0.0000,  0.0000)
  10 Li     3.234074    0.000000   12.286219    ( 0.0000,  0.0000,  0.0000)
  11 Li     6.468148    0.000000   12.286219    ( 0.0000,  0.0000,  0.0000)
  12 Li     1.617037    2.286836   12.286219    ( 0.0000,  0.0000,  0.0000)
  13 Li     4.851111    2.286836   12.286219    ( 0.0000,  0.0000,  0.0000)
  14 Li     8.085185    2.286836   12.286219    ( 0.0000,  0.0000,  0.0000)
  15 Li     3.234074    4.573671   12.286219    ( 0.0000,  0.0000,  0.0000)
  16 Li     6.468148    4.573671   12.286219    ( 0.0000,  0.0000,  0.0000)
  17 Li     9.702222    4.573671   12.286219    ( 0.0000,  0.0000,  0.0000)
  18 Li     0.000000    2.286836   14.574288    ( 0.0000,  0.0000,  0.0000)
  19 Li     3.234074    2.286836   14.574288    ( 0.0000,  0.0000,  0.0000)
  20 Li     6.468148    2.286836   14.574288    ( 0.0000,  0.0000,  0.0000)
  21 Li     1.617037    4.573671   14.574288    ( 0.0000,  0.0000,  0.0000)
  22 Li     4.851111    4.573671   14.574288    ( 0.0000,  0.0000,  0.0000)
  23 Li     8.085185    4.573671   14.574288    ( 0.0000,  0.0000,  0.0000)
  24 Li     3.234074    6.860507   14.574288    ( 0.0000,  0.0000,  0.0000)
  25 Li     6.468148    6.860507   14.574288    ( 0.0000,  0.0000,  0.0000)
  26 Li     9.702222    6.860507   14.574288    ( 0.0000,  0.0000,  0.0000)
  27 Li     0.000000    0.000000   16.861659    ( 0.0000,  0.0000,  0.0000)
  28 Li     3.234074    0.000000   16.861659    ( 0.0000,  0.0000,  0.0000)
  29 Li     6.468148    0.000000   16.861659    ( 0.0000,  0.0000,  0.0000)
  30 Li     1.617037    2.286836   16.861659    ( 0.0000,  0.0000,  0.0000)
  31 Li     4.851111    2.286836   16.861659    ( 0.0000,  0.0000,  0.0000)
  32 Li     8.085185    2.286836   16.861659    ( 0.0000,  0.0000,  0.0000)
  33 Li     3.234074    4.573671   16.861659    ( 0.0000,  0.0000,  0.0000)
  34 Li     6.468148    4.573671   16.861659    ( 0.0000,  0.0000,  0.0000)
  35 Li     9.702222    4.573671   16.861659    ( 0.0000,  0.0000,  0.0000)

Unit cell:
           periodic     x           y           z      points  spacing
  1. axis:    yes    9.702222    0.000000    0.000000    48     0.1650
  2. axis:    yes    4.851111    6.860507    0.000000    48     0.1429
  3. axis:    no     0.000000    0.000000   26.860507   168     0.1599

  Lengths:   9.702222   8.402371  26.860507
  Angles:   90.000000  90.000000  54.735610

Effective grid spacing dv^(1/3) = 0.1665

     iter     time        total  log10-change:
                         energy  eigst   dens
iter:   1 17:37:48  -195.144955  -1.82
iter:   2 17:38:04  -195.143299  -3.26  -2.14
iter:   3 17:39:33  -195.142709c -2.27  -2.28
iter:   4 17:40:59  -195.142244c -4.42  -2.81
Writing to output.gpw (mode='')

iter:   5 17:42:21  -195.142243c -5.00  -3.10
iter:   6 17:43:41  -195.142252c -4.72  -3.10
iter:   7 17:45:12  -195.142285c -4.14  -3.20
iter:   8 17:46:46  -195.142323c -3.99  -3.59
iter:   9 17:48:22  -195.142307c -4.56  -3.93
Writing to output.gpw (mode='')

iter:  10 17:49:50  -195.142287c -5.38  -4.00c
iter:  11 17:51:30  -195.142311c -4.80  -3.97
iter:  12 17:53:01  -195.142304c -5.24  -3.83
iter:  13 17:54:31  -195.142308c -5.14  -3.80
iter:  14 17:55:59  -195.142261c -4.74  -3.77
Writing to output.gpw (mode='')

iter:  15 17:57:26  -195.142283c -6.05  -3.75
iter:  16 17:58:54  -195.142286c -6.00  -4.38c
iter:  17 18:00:28  -195.142287c -5.98  -4.68c
iter:  18 18:02:09  -195.142285c -6.33  -4.76c
iter:  19 18:03:41  -195.142284c -6.48  -4.81c
Writing to output.gpw (mode='')

iter:  20 18:05:14  -195.142283c -6.54  -4.96c
iter:  21 18:06:44  -195.142284c -6.61  -5.04c
iter:  22 18:08:14  -195.142283c -6.77  -5.01c
iter:  23 18:09:49  -195.142282c -6.94  -5.10c
iter:  24 18:11:19  -195.142282c -7.09  -5.11c
Writing to output.gpw (mode='')

iter:  25 18:12:49  -195.142282c -7.07  -5.24c
iter:  26 18:14:16  -195.142282c -7.36  -5.28c
iter:  27 18:15:40  -195.142282c -7.33  -5.40c
iter:  28 18:17:10  -195.142283c -7.50c -5.59c

Converged after 28 iterations.

Dipole moment: (-5.410326, -4.119724, -0.000003) |e|*Ang

Energy contributions relative to reference atoms: (reference = -7300.361529)

Kinetic:       +107.252401
Potential:      -83.497841
External:        +0.000000
XC:            -218.525450
Entropy (-ST):   -0.190211
Local:           -0.276288
--------------------------
Free energy:   -195.237388
Extrapolated:  -195.142283

Dipole-layer corrected work functions: 3.606305, 3.606314 eV

Showing all kpts
 Kpt  Band  Eigenvalues  Occupancy
  0    16     -3.67159    1.57353
  0    17     -3.48973    0.17707
  0    18     -3.48195    0.15353
  0    19     -3.31909    0.00638

  1    16     -3.98292    1.99893
  1    17     -3.69244    1.69690
  1    18     -3.68478    1.65537
  1    19     -3.58063    0.74871


Fermi level: -3.60631

No gap
Writing to output.gpw (mode='')


Forces in eV/Ang:
  0 Li    0.00000    0.00000   -0.08022
  1 Li    0.00000   -0.00000   -0.08022
  2 Li   -0.00000   -0.00000   -0.08022
  3 Li   -0.00000    0.00000   -0.08022
  4 Li    0.00000   -0.00000   -0.08022
  5 Li    0.00000    0.00000   -0.08022
  6 Li   -0.00000    0.00000   -0.08022
  7 Li    0.00000    0.00000   -0.08022
  8 Li    0.00000    0.00000   -0.08022
  9 Li    0.00000    0.00000   -0.04240
 10 Li    0.00000    0.00000   -0.04240
 11 Li   -0.00000    0.00000   -0.04240
 12 Li    0.00000    0.00000   -0.04240
 13 Li    0.00000   -0.00000   -0.04240
 14 Li   -0.00000    0.00000   -0.04240
 15 Li   -0.00000   -0.00000   -0.04240
 16 Li    0.00000   -0.00000   -0.04240
 17 Li    0.00000    0.00000   -0.04240
 18 Li    0.00000   -0.00000    0.04240
 19 Li   -0.00000    0.00000    0.04240
 20 Li    0.00000    0.00000    0.04240
 21 Li    0.00000   -0.00000    0.04240
 22 Li    0.00000    0.00000    0.04240
 23 Li   -0.00000   -0.00000    0.04240
 24 Li    0.00000    0.00000    0.04240
 25 Li   -0.00000    0.00000    0.04240
 26 Li    0.00000    0.00000    0.04240
 27 Li    0.00000    0.00000    0.08022
 28 Li    0.00000    0.00000    0.08022
 29 Li   -0.00000    0.00000    0.08022
 30 Li    0.00000    0.00000    0.08022
 31 Li    0.00000   -0.00000    0.08022
 32 Li   -0.00000    0.00000    0.08022
 33 Li   -0.00000   -0.00000    0.08022
 34 Li    0.00000   -0.00000    0.08022
 35 Li    0.00000    0.00000    0.08022

System changes: positions 

Initializing position-dependent things.

Density initialized from wave functions
                                             
                                             
                                             
                                             
                                             
                  Li      Li      Li         
                    Li      Li      Li       
             Li      Li      Li              
       Li     LLi     LLi     Li             
         Li      Li      Li                  
                                             
                  Li      Li      Li         
             Li     LLi     LLi     Li       
              Li      Li      Li             
       Li      Li      Li                    
         Li      Li      Li                  
                                             
                                             
                                             
                                             
                                             

Positions:
   0 Li     0.000000    2.286836    9.988848    ( 0.0000,  0.0000,  0.0000)
   1 Li     3.234074    2.286836    9.988848    ( 0.0000,  0.0000,  0.0000)
   2 Li     6.468148    2.286836    9.988848    ( 0.0000,  0.0000,  0.0000)
   3 Li     1.617037    4.573671    9.988848    ( 0.0000,  0.0000,  0.0000)
   4 Li     4.851111    4.573671    9.988848    ( 0.0000,  0.0000,  0.0000)
   5 Li     8.085185    4.573671    9.988848    ( 0.0000,  0.0000,  0.0000)
   6 Li     3.234074    6.860507    9.988848    ( 0.0000,  0.0000,  0.0000)
   7 Li     6.468148    6.860507    9.988848    ( 0.0000,  0.0000,  0.0000)
   8 Li     9.702222    6.860507    9.988848    ( 0.0000,  0.0000,  0.0000)
   9 Li    -0.000000   -0.000000   12.280933    ( 0.0000,  0.0000,  0.0000)
  10 Li     3.234074   -0.000000   12.280933    ( 0.0000,  0.0000,  0.0000)
  11 Li     6.468148    0.000000   12.280933    ( 0.0000,  0.0000,  0.0000)
  12 Li     1.617037    2.286836   12.280933    ( 0.0000,  0.0000,  0.0000)
  13 Li     4.851111    2.286836   12.280933    ( 0.0000,  0.0000,  0.0000)
  14 Li     8.085185    2.286836   12.280933    ( 0.0000,  0.0000,  0.0000)
  15 Li     3.234074    4.573671   12.280933    ( 0.0000,  0.0000,  0.0000)
  16 Li     6.468148    4.573671   12.280933    ( 0.0000,  0.0000,  0.0000)
  17 Li     9.702222    4.573671   12.280933    ( 0.0000,  0.0000,  0.0000)
  18 Li     0.000000    2.286836   14.579574    ( 0.0000,  0.0000,  0.0000)
  19 Li     3.234074    2.286836   14.579574    ( 0.0000,  0.0000,  0.0000)
  20 Li     6.468148    2.286836   14.579574    ( 0.0000,  0.0000,  0.0000)
  21 Li     1.617037    4.573671   14.579574    ( 0.0000,  0.0000,  0.0000)
  22 Li     4.851111    4.573671   14.579574    ( 0.0000,  0.0000,  0.0000)
  23 Li     8.085185    4.573671   14.579574    ( 0.0000,  0.0000,  0.0000)
  24 Li     3.234074    6.860507   14.579574    ( 0.0000,  0.0000,  0.0000)
  25 Li     6.468148    6.860507   14.579574    ( 0.0000,  0.0000,  0.0000)
  26 Li     9.702222    6.860507   14.579574    ( 0.0000,  0.0000,  0.0000)
  27 Li    -0.000000   -0.000000   16.871659    ( 0.0000,  0.0000,  0.0000)
  28 Li     3.234074   -0.000000   16.871659    ( 0.0000,  0.0000,  0.0000)
  29 Li     6.468148    0.000000   16.871659    ( 0.0000,  0.0000,  0.0000)
  30 Li     1.617037    2.286836   16.871659    ( 0.0000,  0.0000,  0.0000)
  31 Li     4.851111    2.286836   16.871659    ( 0.0000,  0.0000,  0.0000)
  32 Li     8.085185    2.286836   16.871659    ( 0.0000,  0.0000,  0.0000)
  33 Li     3.234074    4.573671   16.871659    ( 0.0000,  0.0000,  0.0000)
  34 Li     6.468148    4.573671   16.871659    ( 0.0000,  0.0000,  0.0000)
  35 Li     9.702222    4.573671   16.871659    ( 0.0000,  0.0000,  0.0000)

Unit cell:
           periodic     x           y           z      points  spacing
  1. axis:    yes    9.702222    0.000000    0.000000    48     0.1650
  2. axis:    yes    4.851111    6.860507    0.000000    48     0.1429
  3. axis:    no     0.000000    0.000000   26.860507   168     0.1599

  Lengths:   9.702222   8.402371  26.860507
  Angles:   90.000000  90.000000  54.735610

Effective grid spacing dv^(1/3) = 0.1665

     iter     time        total  log10-change:
                         energy  eigst   dens
iter:   1 18:18:42  -195.458350  +0.06
iter:   2 18:20:12  -195.275374  -1.48  -1.18
iter:   3 18:21:36  -195.157889  -0.51  -1.35
iter:   4 18:23:07  -195.156031  -1.65  -2.01
Writing to output.gpw (mode='')

iter:   5 18:24:35  -195.158230c -2.60  -2.57
iter:   6 18:26:05  -195.159028c -2.20  -2.42
iter:   7 18:27:31  -195.159995c -2.33  -2.82
iter:   8 18:28:56  -195.160483c -2.55  -2.83
iter:   9 18:30:23  -195.162659c -2.11  -2.72
Writing to output.gpw (mode='')

iter:  10 18:31:52  -195.166172c -1.81  -2.28
iter:  11 18:33:21  -195.162824c -3.01  -2.06
iter:  12 18:34:50  -195.160316c -2.77  -2.20
iter:  13 18:36:18  -195.160203c -3.12  -2.56
iter:  14 18:37:46  -195.160348c -3.76  -2.67
Writing to output.gpw (mode='')

iter:  15 18:39:15  -195.160171c -2.16  -2.65
iter:  16 18:40:38  -195.160122c -3.43  -2.69
iter:  17 18:42:01  -195.160158c -3.42  -2.80
iter:  18 18:43:22  -195.160082c -4.75  -3.30
iter:  19 18:44:43  -195.160080c -4.99  -3.23
Writing to output.gpw (mode='')

iter:  20 18:46:05  -195.160210c -3.44  -3.28
iter:  21 18:47:24  -195.160128c -4.98  -3.10
iter:  22 18:48:49  -195.160062c -3.81  -3.38
iter:  23 18:50:18  -195.160083c -5.19  -3.51
iter:  24 18:51:45  -195.160096c -5.38  -3.88
Writing to output.gpw (mode='')

iter:  25 18:53:07  -195.160091c -6.12  -4.22c
iter:  26 18:54:37  -195.160088c -5.76  -4.29c
iter:  27 18:55:58  -195.160086c -6.56  -4.41c
iter:  28 18:57:20  -195.160086c -6.77  -4.47c
iter:  29 18:58:45  -195.160084c -6.52  -4.46c
Writing to output.gpw (mode='')

iter:  30 19:00:08  -195.160085c -6.65  -4.41c
iter:  31 19:01:28  -195.160086c -6.83  -4.36c
iter:  32 19:02:56  -195.160087c -6.78  -4.34c
iter:  33 19:04:27  -195.160084c -6.90  -4.32c
iter:  34 19:05:49  -195.160087c -6.89  -4.35c
Writing to output.gpw (mode='')

iter:  35 19:07:18  -195.160084c -7.17  -4.37c
iter:  36 19:08:49  -195.160084c -6.97  -4.35c
iter:  37 19:10:17  -195.160084c -7.01  -4.43c
iter:  38 19:11:44  -195.160085c -7.21  -4.48c
iter:  39 19:13:13  -195.160085c -7.26  -4.54c
Writing to output.gpw (mode='')

iter:  40 19:14:39  -195.160085c -7.17  -4.57c
iter:  41 19:16:06  -195.160085c -7.50c -4.60c

Converged after 41 iterations.

Dipole moment: (-5.410291, -4.119658, 0.000033) |e|*Ang

Energy contributions relative to reference atoms: (reference = -7300.361529)

Kinetic:       +106.649434
Potential:      -83.107172
External:        +0.000000
XC:            -218.332489
Entropy (-ST):   -0.190193
Local:           -0.274761
--------------------------
Free energy:   -195.255182
Extrapolated:  -195.160085

Dipole-layer corrected work functions: 3.607346, 3.607256 eV

Showing all kpts
 Kpt  Band  Eigenvalues  Occupancy
  0    16     -3.67702    1.60260
  0    17     -3.48853    0.17012
  0    18     -3.47740    0.13854
  0    19     -3.31137    0.00536

  1    16     -3.98604    1.99897
  1    17     -3.69271    1.69320
  1    18     -3.67992    1.62071
  1    19     -3.58429    0.77387


Fermi level: -3.60730

No gap
Writing to output.gpw (mode='')


Forces in eV/Ang:
  0 Li    0.00000   -0.00000   -0.07614
  1 Li    0.00000    0.00000   -0.07614
  2 Li   -0.00000    0.00000   -0.07614
  3 Li   -0.00000   -0.00000   -0.07614
  4 Li    0.00000    0.00000   -0.07614
  5 Li    0.00000   -0.00000   -0.07614
  6 Li   -0.00000    0.00000   -0.07614
  7 Li    0.00000    0.00000   -0.07614
  8 Li    0.00000    0.00000   -0.07614
  9 Li    0.00000    0.00000   -0.03581
 10 Li   -0.00000    0.00000   -0.03581
 11 Li    0.00000    0.00000   -0.03581
 12 Li   -0.00000   -0.00000   -0.03581
 13 Li    0.00000    0.00000   -0.03581
 14 Li    0.00000   -0.00000   -0.03581
 15 Li    0.00000    0.00000   -0.03581
 16 Li   -0.00000    0.00000   -0.03581
 17 Li    0.00000   -0.00000   -0.03581
 18 Li    0.00000    0.00000    0.03585
 19 Li    0.00000   -0.00000    0.03585
 20 Li   -0.00000   -0.00000    0.03585
 21 Li   -0.00000    0.00000    0.03585
 22 Li    0.00000   -0.00000    0.03585
 23 Li    0.00000    0.00000    0.03585
 24 Li   -0.00000    0.00000    0.03585
 25 Li    0.00000    0.00000    0.03585
 26 Li    0.00000    0.00000    0.03585
 27 Li    0.00000    0.00000    0.07609
 28 Li    0.00000    0.00000    0.07609
 29 Li   -0.00000    0.00000    0.07609
 30 Li    0.00000    0.00000    0.07609
 31 Li    0.00000   -0.00000    0.07609
 32 Li   -0.00000    0.00000    0.07609
 33 Li   -0.00000   -0.00000    0.07609
 34 Li    0.00000   -0.00000    0.07609
 35 Li    0.00000    0.00000    0.07609

System changes: positions 

Initializing position-dependent things.

Density initialized from wave functions
                                             
                                             
                                             
                                             
                                             
                  Li      Li      Li         
                    Li      Li      Li       
             Li      Li      Li              
       Li     LLi     LLi     Li             
         Li      Li      Li                  
                                             
                  Li      Li      Li         
             Li     LLi     LLi     Li       
              Li      Li      Li             
       Li      Li      Li                    
         Li      Li      Li                  
                                             
                                             
                                             
                                             
                                             

Positions:
   0 Li     0.000000    2.286836    9.978848    ( 0.0000,  0.0000,  0.0000)
   1 Li     3.234074    2.286836    9.978848    ( 0.0000,  0.0000,  0.0000)
   2 Li     6.468148    2.286836    9.978848    ( 0.0000,  0.0000,  0.0000)
   3 Li     1.617037    4.573671    9.978848    ( 0.0000,  0.0000,  0.0000)
   4 Li     4.851111    4.573671    9.978848    ( 0.0000,  0.0000,  0.0000)
   5 Li     8.085185    4.573671    9.978848    ( 0.0000,  0.0000,  0.0000)
   6 Li     3.234074    6.860507    9.978848    ( 0.0000,  0.0000,  0.0000)
   7 Li     6.468148    6.860507    9.978848    ( 0.0000,  0.0000,  0.0000)
   8 Li     9.702222    6.860507    9.978848    ( 0.0000,  0.0000,  0.0000)
   9 Li    -0.000000    0.000000   12.275716    ( 0.0000,  0.0000,  0.0000)
  10 Li     3.234074   -0.000000   12.275716    ( 0.0000,  0.0000,  0.0000)
  11 Li     6.468148    0.000000   12.275716    ( 0.0000,  0.0000,  0.0000)
  12 Li     1.617037    2.286836   12.275716    ( 0.0000,  0.0000,  0.0000)
  13 Li     4.851111    2.286836   12.275716    ( 0.0000,  0.0000,  0.0000)
  14 Li     8.085185    2.286836   12.275716    ( 0.0000,  0.0000,  0.0000)
  15 Li     3.234074    4.573671   12.275716    ( 0.0000,  0.0000,  0.0000)
  16 Li     6.468148    4.573671   12.275716    ( 0.0000,  0.0000,  0.0000)
  17 Li     9.702222    4.573671   12.275716    ( 0.0000,  0.0000,  0.0000)
  18 Li     0.000000    2.286836   14.584792    ( 0.0000,  0.0000,  0.0000)
  19 Li     3.234074    2.286836   14.584792    ( 0.0000,  0.0000,  0.0000)
  20 Li     6.468148    2.286836   14.584792    ( 0.0000,  0.0000,  0.0000)
  21 Li     1.617037    4.573671   14.584792    ( 0.0000,  0.0000,  0.0000)
  22 Li     4.851111    4.573671   14.584792    ( 0.0000,  0.0000,  0.0000)
  23 Li     8.085185    4.573671   14.584792    ( 0.0000,  0.0000,  0.0000)
  24 Li     3.234074    6.860507   14.584792    ( 0.0000,  0.0000,  0.0000)
  25 Li     6.468148    6.860507   14.584792    ( 0.0000,  0.0000,  0.0000)
  26 Li     9.702222    6.860507   14.584792    ( 0.0000,  0.0000,  0.0000)
  27 Li    -0.000000    0.000000   16.881659    ( 0.0000,  0.0000,  0.0000)
  28 Li     3.234074    0.000000   16.881659    ( 0.0000,  0.0000,  0.0000)
  29 Li     6.468148    0.000000   16.881659    ( 0.0000,  0.0000,  0.0000)
  30 Li     1.617037    2.286836   16.881659    ( 0.0000,  0.0000,  0.0000)
  31 Li     4.851111    2.286836   16.881659    ( 0.0000,  0.0000,  0.0000)
  32 Li     8.085185    2.286836   16.881659    ( 0.0000,  0.0000,  0.0000)
  33 Li     3.234074    4.573671   16.881659    ( 0.0000,  0.0000,  0.0000)
  34 Li     6.468148    4.573671   16.881659    ( 0.0000,  0.0000,  0.0000)
  35 Li     9.702222    4.573671   16.881659    ( 0.0000,  0.0000,  0.0000)

Unit cell:
           periodic     x           y           z      points  spacing
  1. axis:    yes    9.702222    0.000000    0.000000    48     0.1650
  2. axis:    yes    4.851111    6.860507    0.000000    48     0.1429
  3. axis:    no     0.000000    0.000000   26.860507   168     0.1599

  Lengths:   9.702222   8.402371  26.860507
  Angles:   90.000000  90.000000  54.735610

Effective grid spacing dv^(1/3) = 0.1665

     iter     time        total  log10-change:
                         energy  eigst   dens
iter:   1 19:17:48  -195.470732  +0.06
iter:   2 19:19:17  -195.290816  -1.49  -1.18
iter:   3 19:20:38  -195.173697  -0.52  -1.35
iter:   4 19:22:00  -195.172872  -1.52  -2.02
Writing to output.gpw (mode='')

iter:   5 19:23:30  -195.174644c -2.54  -2.48
iter:   6 19:25:00  -195.175588c -2.76  -2.48
iter:   7 19:26:30  -195.176038c -2.40  -2.52
iter:   8 19:28:00  -195.176459c -2.73  -2.99
iter:   9 19:29:30  -195.176807c -3.56  -2.95
Writing to output.gpw (mode='')

iter:  10 19:31:04  -195.176699c -4.38  -2.47
iter:  11 19:32:26  -195.176461c -2.68  -2.49
iter:  12 19:33:50  -195.176448c -3.58  -3.39
iter:  13 19:35:12  -195.176953c -2.47  -3.34
iter:  14 19:36:37  -195.176636c -3.79  -2.68
Writing to output.gpw (mode='')

iter:  15 19:38:04  -195.176419c -3.32  -2.90
iter:  16 19:39:31  -195.176517c -3.92  -3.22
iter:  17 19:40:56  -195.176534c -4.04  -3.41
iter:  18 19:42:33  -195.176454c -4.41  -3.26
iter:  19 19:43:32  -195.176468c -5.03  -3.63
Writing to output.gpw (mode='')

iter:  20 19:43:48  -195.176489c -4.82  -3.69
iter:  21 19:44:03  -195.176454c -4.76  -3.50
iter:  22 19:44:18  -195.176466c -5.14  -3.81
iter:  23 19:44:34  -195.176454c -5.38  -3.74
iter:  24 19:44:49  -195.176465c -5.08  -3.88
Writing to output.gpw (mode='')

iter:  25 19:45:05  -195.176452c -5.36  -3.75
iter:  26 19:45:20  -195.176452c -5.58  -4.63c
iter:  27 19:45:35  -195.176452c -5.80  -4.63c
iter:  28 19:45:51  -195.176453c -6.08  -4.60c
iter:  29 19:46:06  -195.176453c -6.18  -4.67c
Writing to output.gpw (mode='')

iter:  30 19:46:22  -195.176454c -6.31  -4.64c
iter:  31 19:46:37  -195.176454c -6.40  -4.57c
iter:  32 19:46:52  -195.176454c -6.49  -4.68c
iter:  33 19:47:08  -195.176454c -6.50  -4.64c
iter:  34 19:47:23  -195.176457c -6.55  -4.57c
Writing to output.gpw (mode='')

iter:  35 19:47:39  -195.176456c -6.54  -4.73c
iter:  36 19:47:54  -195.176457c -6.72  -4.71c
iter:  37 19:48:09  -195.176456c -6.74  -4.75c
iter:  38 19:48:25  -195.176456c -6.79  -4.69c
iter:  39 19:48:40  -195.176456c -6.91  -4.86c
Writing to output.gpw (mode='')

iter:  40 19:48:55  -195.176456c -7.11  -4.98c
iter:  41 19:49:11  -195.176456c -7.11  -5.17c
iter:  42 19:49:26  -195.176456c -7.21  -5.18c
iter:  43 19:49:41  -195.176456c -7.15  -5.25c
iter:  44 19:49:57  -195.176455c -7.23  -5.30c
Writing to output.gpw (mode='')

iter:  45 19:50:12  -195.176455c -7.31  -5.39c
iter:  46 19:50:28  -195.176455c -7.34  -5.46c
iter:  47 19:50:43  -195.176455c -7.31  -5.50c
iter:  48 19:50:58  -195.176455c -7.44c -5.61c

Converged after 48 iterations.

Dipole moment: (-5.410268, -4.119608, 0.000001) |e|*Ang

Energy contributions relative to reference atoms: (reference = -7300.361529)

Kinetic:       +106.051895
Potential:      -82.719068
External:        +0.000000
XC:            -218.140903
Entropy (-ST):   -0.190261
Local:           -0.273248
--------------------------
Free energy:   -195.271585
Extrapolated:  -195.176455

Dipole-layer corrected work functions: 3.608024, 3.608020 eV

Showing all kpts
 Kpt  Band  Eigenvalues  Occupancy
  0    16     -3.68232    1.63093
  0    17     -3.48711    0.16357
  0    18     -3.47269    0.12517
  0    19     -3.30352    0.00452

  1    16     -3.98893    1.99902
  1    17     -3.69272    1.68947
  1    18     -3.67489    1.58411
  1    19     -3.58772    0.79972


Fermi level: -3.60802

No gap
Writing to output.gpw (mode='')


Forces in eV/Ang:
  0 Li    0.00000   -0.00000   -0.07199
  1 Li    0.00000    0.00000   -0.07199
  2 Li   -0.00000    0.00000   -0.07199
  3 Li   -0.00000   -0.00000   -0.07199
  4 Li    0.00000    0.00000   -0.07199
  5 Li    0.00000   -0.00000   -0.07199
  6 Li   -0.00000    0.00000   -0.07199
  7 Li    0.00000    0.00000   -0.07199
  8 Li    0.00000    0.00000   -0.07199
  9 Li    0.00000    0.00000   -0.02962
 10 Li   -0.00000    0.00000   -0.02962
 11 Li    0.00000    0.00000   -0.02962
 12 Li   -0.00000   -0.00000   -0.02962
 13 Li    0.00000    0.00000   -0.02962
 14 Li    0.00000   -0.00000   -0.02962
 15 Li    0.00000    0.00000   -0.02962
 16 Li   -0.00000    0.00000   -0.02962
 17 Li    0.00000   -0.00000   -0.02962
 18 Li    0.00000   -0.00000    0.02962
 19 Li   -0.00000    0.00000    0.02962
 20 Li    0.00000    0.00000    0.02962
 21 Li    0.00000   -0.00000    0.02962
 22 Li    0.00000    0.00000    0.02962
 23 Li   -0.00000   -0.00000    0.02962
 24 Li    0.00000    0.00000    0.02962
 25 Li   -0.00000    0.00000    0.02962
 26 Li    0.00000    0.00000    0.02962
 27 Li    0.00000    0.00000    0.07199
 28 Li    0.00000    0.00000    0.07199
 29 Li   -0.00000    0.00000    0.07199
 30 Li    0.00000    0.00000    0.07199
 31 Li    0.00000   -0.00000    0.07199
 32 Li   -0.00000    0.00000    0.07199
 33 Li   -0.00000   -0.00000    0.07199
 34 Li    0.00000   -0.00000    0.07199
 35 Li    0.00000    0.00000    0.07199

System changes: positions 

Initializing position-dependent things.

Density initialized from wave functions
                                             
                                             
                                             
                                             
                                             
                  Li      Li      Li         
                    Li      Li      Li       
             Li      Li      Li              
       Li     LLi     LLi     Li             
         Li      Li      Li                  
                                             
                  Li      Li      Li         
             Li     LLi     LLi     Li       
              Li      Li      Li             
       Li      Li      Li                    
         Li      Li      Li                  
                                             
                                             
                                             
                                             
                                             

Positions:
   0 Li     0.000000    2.286836    9.968848    ( 0.0000,  0.0000,  0.0000)
   1 Li     3.234074    2.286836    9.968848    ( 0.0000,  0.0000,  0.0000)
   2 Li     6.468148    2.286836    9.968848    ( 0.0000,  0.0000,  0.0000)
   3 Li     1.617037    4.573671    9.968848    ( 0.0000,  0.0000,  0.0000)
   4 Li     4.851111    4.573671    9.968848    ( 0.0000,  0.0000,  0.0000)
   5 Li     8.085185    4.573671    9.968848    ( 0.0000,  0.0000,  0.0000)
   6 Li     3.234074    6.860507    9.968848    ( 0.0000,  0.0000,  0.0000)
   7 Li     6.468148    6.860507    9.968848    ( 0.0000,  0.0000,  0.0000)
   8 Li     9.702222    6.860507    9.968848    ( 0.0000,  0.0000,  0.0000)
   9 Li    -0.000000    0.000000   12.270564    ( 0.0000,  0.0000,  0.0000)
  10 Li     3.234074   -0.000000   12.270564    ( 0.0000,  0.0000,  0.0000)
  11 Li     6.468148    0.000000   12.270564    ( 0.0000,  0.0000,  0.0000)
  12 Li     1.617037    2.286836   12.270564    ( 0.0000,  0.0000,  0.0000)
  13 Li     4.851111    2.286836   12.270564    ( 0.0000,  0.0000,  0.0000)
  14 Li     8.085185    2.286836   12.270564    ( 0.0000,  0.0000,  0.0000)
  15 Li     3.234074    4.573671   12.270564    ( 0.0000,  0.0000,  0.0000)
  16 Li     6.468148    4.573671   12.270564    ( 0.0000,  0.0000,  0.0000)
  17 Li     9.702222    4.573671   12.270564    ( 0.0000,  0.0000,  0.0000)
  18 Li     0.000000    2.286836   14.589944    ( 0.0000,  0.0000,  0.0000)
  19 Li     3.234074    2.286836   14.589944    ( 0.0000,  0.0000,  0.0000)
  20 Li     6.468148    2.286836   14.589944    ( 0.0000,  0.0000,  0.0000)
  21 Li     1.617037    4.573671   14.589944    ( 0.0000,  0.0000,  0.0000)
  22 Li     4.851111    4.573671   14.589944    ( 0.0000,  0.0000,  0.0000)
  23 Li     8.085185    4.573671   14.589944    ( 0.0000,  0.0000,  0.0000)
  24 Li     3.234074    6.860507   14.589944    ( 0.0000,  0.0000,  0.0000)
  25 Li     6.468148    6.860507   14.589944    ( 0.0000,  0.0000,  0.0000)
  26 Li     9.702222    6.860507   14.589944    ( 0.0000,  0.0000,  0.0000)
  27 Li    -0.000000    0.000000   16.891659    ( 0.0000,  0.0000,  0.0000)
  28 Li     3.234074    0.000000   16.891659    ( 0.0000,  0.0000,  0.0000)
  29 Li     6.468148    0.000000   16.891659    ( 0.0000,  0.0000,  0.0000)
  30 Li     1.617037    2.286836   16.891659    ( 0.0000,  0.0000,  0.0000)
  31 Li     4.851111    2.286836   16.891659    ( 0.0000,  0.0000,  0.0000)
  32 Li     8.085185    2.286836   16.891659    ( 0.0000,  0.0000,  0.0000)
  33 Li     3.234074    4.573671   16.891659    ( 0.0000,  0.0000,  0.0000)
  34 Li     6.468148    4.573671   16.891659    ( 0.0000,  0.0000,  0.0000)
  35 Li     9.702222    4.573671   16.891659    ( 0.0000,  0.0000,  0.0000)

Unit cell:
           periodic     x           y           z      points  spacing
  1. axis:    yes    9.702222    0.000000    0.000000    48     0.1650
  2. axis:    yes    4.851111    6.860507    0.000000    48     0.1429
  3. axis:    no     0.000000    0.000000   26.860507   168     0.1599

  Lengths:   9.702222   8.402371  26.860507
  Angles:   90.000000  90.000000  54.735610

Effective grid spacing dv^(1/3) = 0.1665

     iter     time        total  log10-change:
                         energy  eigst   dens
iter:   1 19:51:18  -195.482353  +0.07
iter:   2 19:51:33  -195.305148  -1.49  -1.19
iter:   3 19:51:48  -195.188207  -0.52  -1.35
iter:   4 19:52:03  -195.187416  -1.56  -2.03
Writing to output.gpw (mode='')

iter:   5 19:52:19  -195.189834c -2.72  -2.54
iter:   6 19:52:34  -195.190392c -2.52  -2.35
iter:   7 19:52:49  -195.191034c -2.21  -2.54
iter:   8 19:53:05  -195.191499c -2.66  -2.96
iter:   9 19:53:20  -195.193135c -2.19  -2.86
Writing to output.gpw (mode='')

iter:  10 19:53:35  -195.192058c -3.26  -2.37
iter:  11 19:53:51  -195.191582c -3.24  -2.61
iter:  12 19:54:06  -195.191554c -3.46  -2.94
iter:  13 19:54:21  -195.193538c -2.30  -2.96
iter:  14 19:54:36  -195.194896c -2.45  -2.27
Writing to output.gpw (mode='')

iter:  15 19:54:52  -195.191921c -3.06  -2.14
iter:  16 19:55:07  -195.191581c -1.84  -2.39
iter:  17 19:55:22  -195.191479c -3.17  -2.61
iter:  18 19:55:37  -195.191433c -3.97  -2.76
iter:  19 19:55:53  -195.191422c -4.11  -2.90
Writing to output.gpw (mode='')

iter:  20 19:56:09  -195.191444c -3.75  -3.09
iter:  21 19:56:24  -195.191450c -4.25  -3.71
iter:  22 19:56:39  -195.191461c -4.30  -3.91
iter:  23 19:56:55  -195.191461c -4.79  -3.82
iter:  24 19:57:10  -195.191458c -5.32  -3.76
Writing to output.gpw (mode='')

iter:  25 19:57:26  -195.191438c -5.49  -3.76
iter:  26 19:57:41  -195.191422c -4.40  -3.99
iter:  27 19:57:56  -195.191468c -4.39  -3.47
iter:  28 19:58:11  -195.191431c -5.04  -3.51
iter:  29 19:58:26  -195.191427c -4.92  -4.37c
Writing to output.gpw (mode='')

iter:  30 19:58:42  -195.191429c -5.59  -4.18c
iter:  31 19:58:57  -195.191431c -6.22  -4.22c
iter:  32 19:59:13  -195.191429c -5.63  -4.29c
iter:  33 19:59:28  -195.191429c -5.36  -4.00c
iter:  34 19:59:43  -195.191430c -6.70  -3.81
Writing to output.gpw (mode='')

iter:  35 19:59:59  -195.191427c -6.05  -4.03c
iter:  36 20:00:14  -195.191434c -5.83  -3.84
iter:  37 20:00:29  -195.191437c -5.87  -4.31c
iter:  38 20:00:44  -195.191437c -6.06  -4.55c
iter:  39 20:00:59  -195.191437c -6.69  -4.68c
Writing to output.gpw (mode='')

iter:  40 20:01:15  -195.191438c -6.49  -4.77c
iter:  41 20:01:30  -195.191439c -6.71  -4.91c
iter:  42 20:01:46  -195.191439c -7.00  -5.01c
iter:  43 20:02:01  -195.191437c -7.49c -5.00c

Converged after 43 iterations.

Dipole moment: (-5.410238, -4.119550, -0.000001) |e|*Ang

Energy contributions relative to reference atoms: (reference = -7300.361529)

Kinetic:       +105.459439
Potential:      -82.333803
External:        +0.000000
XC:            -217.950119
Entropy (-ST):   -0.190407
Local:           -0.271751
--------------------------
Free energy:   -195.286641
Extrapolated:  -195.191437

Dipole-layer corrected work functions: 3.608831, 3.608834 eV

Showing all kpts
 Kpt  Band  Eigenvalues  Occupancy
  0    16     -3.68775    1.65795
  0    17     -3.48586    0.15749
  0    18     -3.46824    0.11337
  0    19     -3.29596    0.00383

  1    16     -3.99194    1.99906
  1    17     -3.69284    1.68584
  1    18     -3.67011    1.54608
  1    19     -3.59127    0.82619


Fermi level: -3.60883

No gap
Writing to output.gpw (mode='')


Forces in eV/Ang:
  0 Li    0.00000   -0.00000   -0.06785
  1 Li    0.00000    0.00000   -0.06785
  2 Li   -0.00000    0.00000   -0.06785
  3 Li   -0.00000   -0.00000   -0.06785
  4 Li    0.00000    0.00000   -0.06785
  5 Li    0.00000   -0.00000   -0.06785
  6 Li   -0.00000    0.00000   -0.06785
  7 Li    0.00000    0.00000   -0.06785
  8 Li    0.00000    0.00000   -0.06785
  9 Li    0.00000    0.00000   -0.02375
 10 Li   -0.00000    0.00000   -0.02375
 11 Li    0.00000    0.00000   -0.02375
 12 Li   -0.00000    0.00000   -0.02375
 13 Li    0.00000   -0.00000   -0.02375
 14 Li    0.00000    0.00000   -0.02375
 15 Li    0.00000   -0.00000   -0.02375
 16 Li   -0.00000   -0.00000   -0.02375
 17 Li    0.00000    0.00000   -0.02375
 18 Li    0.00000   -0.00000    0.02376
 19 Li   -0.00000    0.00000    0.02376
 20 Li    0.00000    0.00000    0.02376
 21 Li    0.00000   -0.00000    0.02376
 22 Li    0.00000    0.00000    0.02376
 23 Li   -0.00000   -0.00000    0.02376
 24 Li    0.00000    0.00000    0.02376
 25 Li   -0.00000    0.00000    0.02376
 26 Li    0.00000    0.00000    0.02376
 27 Li    0.00000    0.00000    0.06785
 28 Li    0.00000    0.00000    0.06785
 29 Li   -0.00000    0.00000    0.06785
 30 Li    0.00000    0.00000    0.06785
 31 Li    0.00000   -0.00000    0.06785
 32 Li   -0.00000    0.00000    0.06785
 33 Li   -0.00000   -0.00000    0.06785
 34 Li    0.00000   -0.00000    0.06785
 35 Li    0.00000    0.00000    0.06785

System changes: positions 

Initializing position-dependent things.

Density initialized from wave functions
                                             
                                             
                                             
                                             
                                             
                  Li      Li      Li         
                    Li      Li      Li       
             Li      Li      Li              
       Li     LLi     LLi     Li             
         Li      Li      Li                  
                                             
                  Li      Li      Li         
             Li     LLi     LLi     Li       
              Li      Li      Li             
       Li      Li      Li                    
         Li      Li      Li                  
                                             
                                             
                                             
                                             
                                             

Positions:
   0 Li     0.000000    2.286836    9.958848    ( 0.0000,  0.0000,  0.0000)
   1 Li     3.234074    2.286836    9.958848    ( 0.0000,  0.0000,  0.0000)
   2 Li     6.468148    2.286836    9.958848    ( 0.0000,  0.0000,  0.0000)
   3 Li     1.617037    4.573671    9.958848    ( 0.0000,  0.0000,  0.0000)
   4 Li     4.851111    4.573671    9.958848    ( 0.0000,  0.0000,  0.0000)
   5 Li     8.085185    4.573671    9.958848    ( 0.0000,  0.0000,  0.0000)
   6 Li     3.234074    6.860507    9.958848    ( 0.0000,  0.0000,  0.0000)
   7 Li     6.468148    6.860507    9.958848    ( 0.0000,  0.0000,  0.0000)
   8 Li     9.702222    6.860507    9.958848    ( 0.0000,  0.0000,  0.0000)
   9 Li    -0.000000    0.000000   12.265479    ( 0.0000,  0.0000,  0.0000)
  10 Li     3.234074   -0.000000   12.265479    ( 0.0000,  0.0000,  0.0000)
  11 Li     6.468148    0.000000   12.265479    ( 0.0000,  0.0000,  0.0000)
  12 Li     1.617037    2.286836   12.265479    ( 0.0000,  0.0000,  0.0000)
  13 Li     4.851111    2.286836   12.265479    ( 0.0000,  0.0000,  0.0000)
  14 Li     8.085185    2.286836   12.265479    ( 0.0000,  0.0000,  0.0000)
  15 Li     3.234074    4.573671   12.265479    ( 0.0000,  0.0000,  0.0000)
  16 Li     6.468148    4.573671   12.265479    ( 0.0000,  0.0000,  0.0000)
  17 Li     9.702222    4.573671   12.265479    ( 0.0000,  0.0000,  0.0000)
  18 Li     0.000000    2.286836   14.595028    ( 0.0000,  0.0000,  0.0000)
  19 Li     3.234074    2.286836   14.595028    ( 0.0000,  0.0000,  0.0000)
  20 Li     6.468148    2.286836   14.595028    ( 0.0000,  0.0000,  0.0000)
  21 Li     1.617037    4.573671   14.595028    ( 0.0000,  0.0000,  0.0000)
  22 Li     4.851111    4.573671   14.595028    ( 0.0000,  0.0000,  0.0000)
  23 Li     8.085185    4.573671   14.595028    ( 0.0000,  0.0000,  0.0000)
  24 Li     3.234074    6.860507   14.595028    ( 0.0000,  0.0000,  0.0000)
  25 Li     6.468148    6.860507   14.595028    ( 0.0000,  0.0000,  0.0000)
  26 Li     9.702222    6.860507   14.595028    ( 0.0000,  0.0000,  0.0000)
  27 Li    -0.000000    0.000000   16.901659    ( 0.0000,  0.0000,  0.0000)
  28 Li     3.234074    0.000000   16.901659    ( 0.0000,  0.0000,  0.0000)
  29 Li     6.468148    0.000000   16.901659    ( 0.0000,  0.0000,  0.0000)
  30 Li     1.617037    2.286836   16.901659    ( 0.0000,  0.0000,  0.0000)
  31 Li     4.851111    2.286836   16.901659    ( 0.0000,  0.0000,  0.0000)
  32 Li     8.085185    2.286836   16.901659    ( 0.0000,  0.0000,  0.0000)
  33 Li     3.234074    4.573671   16.901659    ( 0.0000,  0.0000,  0.0000)
  34 Li     6.468148    4.573671   16.901659    ( 0.0000,  0.0000,  0.0000)
  35 Li     9.702222    4.573671   16.901659    ( 0.0000,  0.0000,  0.0000)

Unit cell:
           periodic     x           y           z      points  spacing
  1. axis:    yes    9.702222    0.000000    0.000000    48     0.1650
  2. axis:    yes    4.851111    6.860507    0.000000    48     0.1429
  3. axis:    no     0.000000    0.000000   26.860507   168     0.1599

  Lengths:   9.702222   8.402371  26.860507
  Angles:   90.000000  90.000000  54.735610

Effective grid spacing dv^(1/3) = 0.1665

     iter     time        total  log10-change:
                         energy  eigst   dens
iter:   1 20:02:20  -195.490980  +0.07
iter:   2 20:02:35  -195.317824  -1.48  -1.19
iter:   3 20:02:50  -195.201733  -0.52  -1.35
iter:   4 20:03:06  -195.201247  -1.52  -2.03
Writing to output.gpw (mode='')

iter:   5 20:03:21  -195.203667c -2.79  -2.50
iter:   6 20:03:36  -195.204160c -2.67  -2.33
iter:   7 20:03:52  -195.204552c -2.21  -2.47
iter:   8 20:04:07  -195.204986c -2.65  -3.01
iter:   9 20:04:22  -195.205875c -2.37  -2.94
Writing to output.gpw (mode='')

iter:  10 20:04:38  -195.205100c -3.48  -2.54
iter:  11 20:04:53  -195.205725c -2.55  -2.84
iter:  12 20:05:08  -195.205167c -2.52  -2.41
iter:  13 20:05:23  -195.205259c -2.77  -3.05
iter:  14 20:05:39  -195.205702c -2.49  -2.86
Writing to output.gpw (mode='')

iter:  15 20:05:54  -195.205326c -3.51  -2.54
iter:  16 20:06:10  -195.204867c -3.26  -2.64
iter:  17 20:06:25  -195.204804c -3.49  -3.12
iter:  18 20:06:40  -195.204740c -3.37  -3.31
iter:  19 20:06:55  -195.204664c -3.24  -3.70
Writing to output.gpw (mode='')

iter:  20 20:07:11  -195.204604c -3.27  -3.47
iter:  21 20:07:26  -195.204536c -3.84  -3.12
iter:  22 20:07:41  -195.204502c -4.12  -3.44
iter:  23 20:07:57  -195.204470c -3.96  -3.41
iter:  24 20:08:12  -195.204445c -3.63  -3.73
Writing to output.gpw (mode='')

iter:  25 20:08:27  -195.204377c -3.88  -3.39
iter:  26 20:08:43  -195.204344c -3.97  -3.99
iter:  27 20:08:58  -195.204320c -4.02  -3.82
iter:  28 20:09:13  -195.204300c -4.17  -4.07c
iter:  29 20:09:28  -195.204279c -3.94  -4.06c
Writing to output.gpw (mode='')

iter:  30 20:09:44  -195.204258c -4.17  -3.90
iter:  31 20:09:59  -195.204239c -4.25  -4.09c
iter:  32 20:10:14  -195.204223c -4.17  -4.28c
iter:  33 20:10:30  -195.204208c -4.34  -4.37c
iter:  34 20:10:45  -195.204186c -4.06  -4.24c
Writing to output.gpw (mode='')

iter:  35 20:11:01  -195.204174c -4.51  -4.60c
iter:  36 20:11:16  -195.204163c -4.51  -4.67c
iter:  37 20:11:31  -195.204152c -4.59  -4.75c
iter:  38 20:11:46  -195.204143c -4.58  -4.86c
iter:  39 20:12:01  -195.204133c -4.45  -4.90c
Writing to output.gpw (mode='')

iter:  40 20:12:18  -195.204126c -4.70  -4.94c
iter:  41 20:12:33  -195.204116c -4.34  -5.02c
iter:  42 20:12:48  -195.204108c -4.41  -5.05c
iter:  43 20:13:03  -195.204102c -4.74  -5.01c
iter:  44 20:13:19  -195.204097c -4.80  -4.87c
Writing to output.gpw (mode='')

iter:  45 20:13:34  -195.204092c -4.93  -4.83c
iter:  46 20:13:49  -195.204087c -4.84  -4.78c
iter:  47 20:14:05  -195.204083c -4.99  -4.74c
iter:  48 20:14:20  -195.204079c -4.85  -4.77c
iter:  49 20:14:35  -195.204075c -5.11  -4.74c
Writing to output.gpw (mode='')

iter:  50 20:14:51  -195.204072c -5.16  -4.79c
iter:  51 20:15:06  -195.204069c -5.10  -4.74c
iter:  52 20:15:21  -195.204067c -5.25  -4.82c
iter:  53 20:15:36  -195.204064c -5.13  -4.79c
iter:  54 20:15:52  -195.204061c -5.33  -4.81c
Writing to output.gpw (mode='')

iter:  55 20:16:07  -195.204059c -5.33  -4.85c
iter:  56 20:16:23  -195.204057c -5.11  -4.89c
iter:  57 20:16:38  -195.204056c -5.33  -4.92c
iter:  58 20:16:53  -195.204053c -5.46  -4.95c
iter:  59 20:17:08  -195.204052c -5.21  -5.28c
Writing to output.gpw (mode='')

iter:  60 20:17:24  -195.204051c -5.35  -5.17c
iter:  61 20:17:39  -195.204050c -5.62  -5.19c
iter:  62 20:17:55  -195.204049c -5.48  -5.48c
iter:  63 20:18:10  -195.204048c -5.62  -5.52c
iter:  64 20:18:25  -195.204047c -5.74  -5.59c
Writing to output.gpw (mode='')

iter:  65 20:18:41  -195.204047c -5.78  -5.67c
iter:  66 20:18:56  -195.204046c -5.84  -5.70c
iter:  67 20:19:11  -195.204045c -5.86  -5.70c
iter:  68 20:19:27  -195.204045c -5.91  -5.70c
iter:  69 20:19:42  -195.204044c -5.91  -5.65c
Writing to output.gpw (mode='')

iter:  70 20:19:57  -195.204044c -6.00  -5.71c
iter:  71 20:20:13  -195.204044c -6.04  -5.65c
iter:  72 20:20:28  -195.204043c -6.03  -5.69c
iter:  73 20:20:43  -195.204043c -6.10  -5.67c
iter:  74 20:20:58  -195.204043c -6.15  -5.64c
Writing to output.gpw (mode='')

iter:  75 20:21:16  -195.204042c -6.12  -5.58c
iter:  76 20:21:31  -195.204042c -6.23  -5.51c
iter:  77 20:21:46  -195.204042c -6.18  -5.52c
iter:  78 20:22:01  -195.204042c -6.31  -5.58c
iter:  79 20:22:17  -195.204042c -6.35  -5.64c
Writing to output.gpw (mode='')

iter:  80 20:22:32  -195.204041c -6.28  -5.65c
iter:  81 20:22:48  -195.204041c -6.33  -5.47c
iter:  82 20:23:03  -195.204041c -6.49  -5.58c
iter:  83 20:23:18  -195.204041c -6.42  -5.62c
iter:  84 20:23:33  -195.204041c -6.53  -5.64c
Writing to output.gpw (mode='')

iter:  85 20:23:49  -195.204041c -6.51  -5.66c
iter:  86 20:24:04  -195.204040c -6.62  -5.68c
iter:  87 20:24:19  -195.204041c -6.58  -5.74c
iter:  88 20:24:35  -195.204040c -6.71  -6.02c
iter:  89 20:24:50  -195.204040c -6.74  -6.18c
Writing to output.gpw (mode='')

iter:  90 20:25:05  -195.204040c -6.64  -6.23c
iter:  91 20:25:21  -195.204040c -6.77  -6.23c
iter:  92 20:25:36  -195.204040c -6.83  -6.28c
iter:  93 20:25:51  -195.204040c -6.93  -6.40c
iter:  94 20:26:06  -195.204040c -6.97  -6.36c
Writing to output.gpw (mode='')

iter:  95 20:26:22  -195.204040c -7.01  -6.32c
iter:  96 20:26:37  -195.204040c -7.04  -6.28c
iter:  97 20:26:52  -195.204040c -6.96  -6.19c
iter:  98 20:27:08  -195.204040c -7.14  -6.21c
iter:  99 20:27:23  -195.204040c -7.14  -6.17c
Writing to output.gpw (mode='')

iter: 100 20:27:39  -195.204040c -7.21  -6.20c
iter: 101 20:27:54  -195.204040c -7.24  -6.16c
iter: 102 20:28:09  -195.204040c -7.21  -6.11c
iter: 103 20:28:24  -195.204040c -7.26  -6.14c
iter: 104 20:28:40  -195.204040c -7.35  -6.17c
Writing to output.gpw (mode='')

iter: 105 20:28:56  -195.204040c -7.38  -6.13c
iter: 106 20:29:11  -195.204040c -7.43c -6.15c

Converged after 106 iterations.

Dipole moment: (-5.410172, -4.119450, -0.000000) |e|*Ang

Energy contributions relative to reference atoms: (reference = -7300.361529)

Kinetic:       +104.865045
Potential:      -81.945578
External:        +0.000000
XC:            -217.756412
Entropy (-ST):   -0.193697
Local:           -0.270246
--------------------------
Free energy:   -195.300888
Extrapolated:  -195.204040

Dipole-layer corrected work functions: 3.611877, 3.611878 eV

Showing all kpts
 Kpt  Band  Eigenvalues  Occupancy
  0    16     -3.69467    1.67934
  0    17     -3.48652    0.15072
  0    18     -3.46588    0.10235
  0    19     -3.38354    0.02057

  1    16     -3.99679    1.99909
  1    17     -3.69480    1.68005
  1    18     -3.66743    1.50462
  1    19     -3.59666    0.84903


Fermi level: -3.61188

No gap
Writing to output.gpw (mode='')


Forces in eV/Ang:
  0 Li    0.00000    0.00000   -0.06361
  1 Li    0.00000   -0.00000   -0.06361
  2 Li   -0.00000   -0.00000   -0.06361
  3 Li   -0.00000    0.00000   -0.06361
  4 Li    0.00000   -0.00000   -0.06361
  5 Li    0.00000    0.00000   -0.06361
  6 Li   -0.00000    0.00000   -0.06361
  7 Li    0.00000    0.00000   -0.06361
  8 Li    0.00000    0.00000   -0.06361
  9 Li    0.00000    0.00000   -0.01826
 10 Li    0.00000    0.00000   -0.01826
 11 Li   -0.00000    0.00000   -0.01826
 12 Li    0.00000    0.00000   -0.01826
 13 Li    0.00000   -0.00000   -0.01826
 14 Li   -0.00000    0.00000   -0.01826
 15 Li   -0.00000   -0.00000   -0.01826
 16 Li    0.00000   -0.00000   -0.01826
 17 Li    0.00000    0.00000   -0.01826
 18 Li    0.00000    0.00000    0.01826
 19 Li    0.00000   -0.00000    0.01826
 20 Li   -0.00000   -0.00000    0.01826
 21 Li   -0.00000    0.00000    0.01826
 22 Li    0.00000   -0.00000    0.01826
 23 Li    0.00000    0.00000    0.01826
 24 Li   -0.00000    0.00000    0.01826
 25 Li    0.00000    0.00000    0.01826
 26 Li    0.00000    0.00000    0.01826
 27 Li    0.00000    0.00000    0.06361
 28 Li    0.00000    0.00000    0.06361
 29 Li   -0.00000    0.00000    0.06361
 30 Li    0.00000    0.00000    0.06361
 31 Li    0.00000   -0.00000    0.06361
 32 Li   -0.00000    0.00000    0.06361
 33 Li   -0.00000   -0.00000    0.06361
 34 Li    0.00000   -0.00000    0.06361
 35 Li    0.00000    0.00000    0.06361

System changes: positions 

Initializing position-dependent things.

Density initialized from wave functions
                                             
                                             
                                             
                                             
                                             
                  Li      Li      Li         
                    Li      Li      Li       
             Li      Li      Li              
       Li     LLi     LLi     Li             
         Li      Li      Li                  
                                             
                  Li      Li      Li         
             Li     LLi     LLi     Li       
              Li      Li      Li             
       Li      Li      Li                    
         Li      Li      Li                  
                                             
                                             
                                             
                                             
                                             

Positions:
   0 Li     0.000000    2.286836    9.948848    ( 0.0000,  0.0000,  0.0000)
   1 Li     3.234074    2.286836    9.948848    ( 0.0000,  0.0000,  0.0000)
   2 Li     6.468148    2.286836    9.948848    ( 0.0000,  0.0000,  0.0000)
   3 Li     1.617037    4.573671    9.948848    ( 0.0000,  0.0000,  0.0000)
   4 Li     4.851111    4.573671    9.948848    ( 0.0000,  0.0000,  0.0000)
   5 Li     8.085185    4.573671    9.948848    ( 0.0000,  0.0000,  0.0000)
   6 Li     3.234074    6.860507    9.948848    ( 0.0000,  0.0000,  0.0000)
   7 Li     6.468148    6.860507    9.948848    ( 0.0000,  0.0000,  0.0000)
   8 Li     9.702222    6.860507    9.948848    ( 0.0000,  0.0000,  0.0000)
   9 Li    -0.000000    0.000000   12.260460    ( 0.0000,  0.0000,  0.0000)
  10 Li     3.234074   -0.000000   12.260460    ( 0.0000,  0.0000,  0.0000)
  11 Li     6.468148    0.000000   12.260460    ( 0.0000,  0.0000,  0.0000)
  12 Li     1.617037    2.286836   12.260460    ( 0.0000,  0.0000,  0.0000)
  13 Li     4.851111    2.286836   12.260460    ( 0.0000,  0.0000,  0.0000)
  14 Li     8.085185    2.286836   12.260460    ( 0.0000,  0.0000,  0.0000)
  15 Li     3.234074    4.573671   12.260460    ( 0.0000,  0.0000,  0.0000)
  16 Li     6.468148    4.573671   12.260460    ( 0.0000,  0.0000,  0.0000)
  17 Li     9.702222    4.573671   12.260460    ( 0.0000,  0.0000,  0.0000)
  18 Li     0.000000    2.286836   14.600047    ( 0.0000,  0.0000,  0.0000)
  19 Li     3.234074    2.286836   14.600047    ( 0.0000,  0.0000,  0.0000)
  20 Li     6.468148    2.286836   14.600047    ( 0.0000,  0.0000,  0.0000)
  21 Li     1.617037    4.573671   14.600047    ( 0.0000,  0.0000,  0.0000)
  22 Li     4.851111    4.573671   14.600047    ( 0.0000,  0.0000,  0.0000)
  23 Li     8.085185    4.573671   14.600047    ( 0.0000,  0.0000,  0.0000)
  24 Li     3.234074    6.860507   14.600047    ( 0.0000,  0.0000,  0.0000)
  25 Li     6.468148    6.860507   14.600047    ( 0.0000,  0.0000,  0.0000)
  26 Li     9.702222    6.860507   14.600047    ( 0.0000,  0.0000,  0.0000)
  27 Li    -0.000000    0.000000   16.911659    ( 0.0000,  0.0000,  0.0000)
  28 Li     3.234074    0.000000   16.911659    ( 0.0000,  0.0000,  0.0000)
  29 Li     6.468148    0.000000   16.911659    ( 0.0000,  0.0000,  0.0000)
  30 Li     1.617037    2.286836   16.911659    ( 0.0000,  0.0000,  0.0000)
  31 Li     4.851111    2.286836   16.911659    ( 0.0000,  0.0000,  0.0000)
  32 Li     8.085185    2.286836   16.911659    ( 0.0000,  0.0000,  0.0000)
  33 Li     3.234074    4.573671   16.911659    ( 0.0000,  0.0000,  0.0000)
  34 Li     6.468148    4.573671   16.911659    ( 0.0000,  0.0000,  0.0000)
  35 Li     9.702222    4.573671   16.911659    ( 0.0000,  0.0000,  0.0000)

Unit cell:
           periodic     x           y           z      points  spacing
  1. axis:    yes    9.702222    0.000000    0.000000    48     0.1650
  2. axis:    yes    4.851111    6.860507    0.000000    48     0.1429
  3. axis:    no     0.000000    0.000000   26.860507   168     0.1599

  Lengths:   9.702222   8.402371  26.860507
  Angles:   90.000000  90.000000  54.735610

Effective grid spacing dv^(1/3) = 0.1665

     iter     time        total  log10-change:
                         energy  eigst   dens
iter:   1 20:29:31  -195.505420  +0.05
iter:   2 20:29:46  -195.327824  -1.53  -1.18
iter:   3 20:30:01  -195.210902  -0.59  -1.36
iter:   4 20:30:17  -195.212014  -1.50  -2.05
Writing to output.gpw (mode='')

iter:   5 20:30:32  -195.214757c -2.78  -2.48
iter:   6 20:30:48  -195.214939c -2.24  -2.35
iter:   7 20:31:03  -195.215668c -2.26  -2.73
iter:   8 20:31:18  -195.216051c -2.66  -2.83
iter:   9 20:31:34  -195.217375c -2.25  -2.88
Writing to output.gpw (mode='')

iter:  10 20:31:50  -195.219281c -2.06  -2.38
iter:  11 20:32:05  -195.217414c -3.22  -2.16
iter:  12 20:32:20  -195.216243c -2.85  -2.32
iter:  13 20:32:35  -195.216504c -4.17  -2.79
iter:  14 20:32:51  -195.216544c -4.27  -2.62
Writing to output.gpw (mode='')

iter:  15 20:33:06  -195.216639c -2.77  -2.60
iter:  16 20:33:22  -195.216246c -2.82  -2.59
iter:  17 20:33:37  -195.216254c -4.18  -3.15
iter:  18 20:33:52  -195.216359c -3.84  -3.20
iter:  19 20:34:08  -195.216253c -4.45  -2.86
Writing to output.gpw (mode='')

iter:  20 20:34:24  -195.216246c -3.45  -3.21
iter:  21 20:34:39  -195.216248c -4.24  -3.75
iter:  22 20:34:54  -195.216247c -5.23  -3.85
iter:  23 20:35:09  -195.216247c -5.57  -4.19c
iter:  24 20:35:25  -195.216247c -6.15  -3.94
Writing to output.gpw (mode='')

iter:  25 20:35:41  -195.216246c -5.42  -3.99
iter:  26 20:35:56  -195.216245c -6.39  -4.34c
iter:  27 20:36:11  -195.216244c -6.19  -4.24c
iter:  28 20:36:26  -195.216242c -6.14  -4.47c
iter:  29 20:36:42  -195.216242c -6.55  -4.74c
Writing to output.gpw (mode='')

iter:  30 20:36:58  -195.216242c -6.59  -4.77c
iter:  31 20:37:13  -195.216242c -6.47  -4.69c
iter:  32 20:37:28  -195.216242c -6.70  -4.57c
iter:  33 20:37:43  -195.216242c -6.98  -4.63c
iter:  34 20:37:59  -195.216242c -6.62  -4.64c
Writing to output.gpw (mode='')

iter:  35 20:38:14  -195.216242c -6.93  -4.68c
iter:  36 20:38:30  -195.216242c -7.30  -5.00c
iter:  37 20:38:45  -195.216242c -7.45c -5.05c

Converged after 37 iterations.

Dipole moment: (-5.410139, -4.119387, 0.000008) |e|*Ang

Energy contributions relative to reference atoms: (reference = -7300.361529)

Kinetic:       +104.281681
Potential:      -81.564710
External:        +0.000000
XC:            -217.567323
Entropy (-ST):   -0.194211
Local:           -0.268784
--------------------------
Free energy:   -195.313348
Extrapolated:  -195.216242

Dipole-layer corrected work functions: 3.612690, 3.612668 eV

Showing all kpts
 Kpt  Band  Eigenvalues  Occupancy
  0    16     -3.70022    1.70409
  0    17     -3.48535    0.14532
  0    18     -3.46164    0.09299
  0    19     -3.38913    0.02262

  1    16     -3.99984    1.99913
  1    17     -3.69490    1.67627
  1    18     -3.66285    1.46350
  1    19     -3.60026    0.87645


Fermi level: -3.61268

No gap
Writing to output.gpw (mode='')


Forces in eV/Ang:
  0 Li    0.00000    0.00000   -0.05914
  1 Li    0.00000   -0.00000   -0.05914
  2 Li   -0.00000   -0.00000   -0.05914
  3 Li   -0.00000    0.00000   -0.05914
  4 Li    0.00000   -0.00000   -0.05914
  5 Li    0.00000    0.00000   -0.05914
  6 Li   -0.00000    0.00000   -0.05914
  7 Li    0.00000    0.00000   -0.05914
  8 Li    0.00000    0.00000   -0.05914
  9 Li    0.00000    0.00000   -0.01307
 10 Li    0.00000    0.00000   -0.01307
 11 Li   -0.00000    0.00000   -0.01307
 12 Li    0.00000    0.00000   -0.01307
 13 Li    0.00000   -0.00000   -0.01307
 14 Li   -0.00000    0.00000   -0.01307
 15 Li   -0.00000   -0.00000   -0.01307
 16 Li    0.00000   -0.00000   -0.01307
 17 Li    0.00000    0.00000   -0.01307
 18 Li    0.00000   -0.00000    0.01308
 19 Li   -0.00000    0.00000    0.01308
 20 Li    0.00000    0.00000    0.01308
 21 Li    0.00000   -0.00000    0.01308
 22 Li    0.00000    0.00000    0.01308
 23 Li   -0.00000   -0.00000    0.01308
 24 Li    0.00000    0.00000    0.01308
 25 Li   -0.00000    0.00000    0.01308
 26 Li    0.00000    0.00000    0.01308
 27 Li    0.00000    0.00000    0.05912
 28 Li   -0.00000    0.00000    0.05912
 29 Li    0.00000    0.00000    0.05912
 30 Li   -0.00000   -0.00000    0.05912
 31 Li    0.00000    0.00000    0.05912
 32 Li    0.00000   -0.00000    0.05912
 33 Li    0.00000    0.00000    0.05912
 34 Li   -0.00000    0.00000    0.05912
 35 Li    0.00000   -0.00000    0.05912

System changes: positions 

Initializing position-dependent things.

Density initialized from wave functions
                                             
                                             
                                             
                                             
                                             
                  Li      Li      Li         
                    Li      Li      Li       
             Li      Li      Li              
       Li     LLi     LLi     Li             
         Li      Li      Li                  
                                             
                  Li      Li      Li         
             Li     LLi     LLi     Li       
              Li      Li      Li             
       Li      Li      Li                    
         Li      Li      Li                  
                                             
                                             
                                             
                                             
                                             

Positions:
   0 Li     0.000000    2.286836    9.938848    ( 0.0000,  0.0000,  0.0000)
   1 Li     3.234074    2.286836    9.938848    ( 0.0000,  0.0000,  0.0000)
   2 Li     6.468148    2.286836    9.938848    ( 0.0000,  0.0000,  0.0000)
   3 Li     1.617037    4.573671    9.938848    ( 0.0000,  0.0000,  0.0000)
   4 Li     4.851111    4.573671    9.938848    ( 0.0000,  0.0000,  0.0000)
   5 Li     8.085185    4.573671    9.938848    ( 0.0000,  0.0000,  0.0000)
   6 Li     3.234074    6.860507    9.938848    ( 0.0000,  0.0000,  0.0000)
   7 Li     6.468148    6.860507    9.938848    ( 0.0000,  0.0000,  0.0000)
   8 Li     9.702222    6.860507    9.938848    ( 0.0000,  0.0000,  0.0000)
   9 Li    -0.000000    0.000000   12.255508    ( 0.0000,  0.0000,  0.0000)
  10 Li     3.234074   -0.000000   12.255508    ( 0.0000,  0.0000,  0.0000)
  11 Li     6.468148    0.000000   12.255508    ( 0.0000,  0.0000,  0.0000)
  12 Li     1.617037    2.286836   12.255508    ( 0.0000,  0.0000,  0.0000)
  13 Li     4.851111    2.286836   12.255508    ( 0.0000,  0.0000,  0.0000)
  14 Li     8.085185    2.286836   12.255508    ( 0.0000,  0.0000,  0.0000)
  15 Li     3.234074    4.573671   12.255508    ( 0.0000,  0.0000,  0.0000)
  16 Li     6.468148    4.573671   12.255508    ( 0.0000,  0.0000,  0.0000)
  17 Li     9.702222    4.573671   12.255508    ( 0.0000,  0.0000,  0.0000)
  18 Li     0.000000    2.286836   14.605000    ( 0.0000,  0.0000,  0.0000)
  19 Li     3.234074    2.286836   14.605000    ( 0.0000,  0.0000,  0.0000)
  20 Li     6.468148    2.286836   14.605000    ( 0.0000,  0.0000,  0.0000)
  21 Li     1.617037    4.573671   14.605000    ( 0.0000,  0.0000,  0.0000)
  22 Li     4.851111    4.573671   14.605000    ( 0.0000,  0.0000,  0.0000)
  23 Li     8.085185    4.573671   14.605000    ( 0.0000,  0.0000,  0.0000)
  24 Li     3.234074    6.860507   14.605000    ( 0.0000,  0.0000,  0.0000)
  25 Li     6.468148    6.860507   14.605000    ( 0.0000,  0.0000,  0.0000)
  26 Li     9.702222    6.860507   14.605000    ( 0.0000,  0.0000,  0.0000)
  27 Li    -0.000000    0.000000   16.921658    ( 0.0000,  0.0000,  0.0000)
  28 Li     3.234074    0.000000   16.921658    ( 0.0000,  0.0000,  0.0000)
  29 Li     6.468148    0.000000   16.921658    ( 0.0000,  0.0000,  0.0000)
  30 Li     1.617037    2.286836   16.921658    ( 0.0000,  0.0000,  0.0000)
  31 Li     4.851111    2.286836   16.921658    ( 0.0000,  0.0000,  0.0000)
  32 Li     8.085185    2.286836   16.921658    ( 0.0000,  0.0000,  0.0000)
  33 Li     3.234074    4.573671   16.921658    ( 0.0000,  0.0000,  0.0000)
  34 Li     6.468148    4.573671   16.921658    ( 0.0000,  0.0000,  0.0000)
  35 Li     9.702222    4.573671   16.921658    ( 0.0000,  0.0000,  0.0000)

Unit cell:
           periodic     x           y           z      points  spacing
  1. axis:    yes    9.702222    0.000000    0.000000    48     0.1650
  2. axis:    yes    4.851111    6.860507    0.000000    48     0.1429
  3. axis:    no     0.000000    0.000000   26.860507   168     0.1599

  Lengths:   9.702222   8.402371  26.860507
  Angles:   90.000000  90.000000  54.735610

Effective grid spacing dv^(1/3) = 0.1665

     iter     time        total  log10-change:
                         energy  eigst   dens
iter:   1 20:39:04  -195.512271  +0.04
iter:   2 20:39:19  -195.338096  -1.53  -1.19
iter:   3 20:39:35  -195.221894  -0.59  -1.36
iter:   4 20:39:50  -195.223027  -1.50  -2.04
Writing to output.gpw (mode='')

iter:   5 20:40:06  -195.225848c -2.82  -2.46
iter:   6 20:40:21  -195.225884c -2.27  -2.34
iter:   7 20:40:36  -195.226453c -2.30  -2.68
iter:   8 20:40:52  -195.226861c -2.65  -2.91
iter:   9 20:41:07  -195.228147c -2.18  -2.94
Writing to output.gpw (mode='')

iter:  10 20:41:23  -195.229279c -2.22  -2.38
iter:  11 20:41:38  -195.228084c -3.22  -2.24
iter:  12 20:41:53  -195.227164c -3.11  -2.36
iter:  13 20:42:08  -195.227374c -4.20  -2.80
iter:  14 20:42:24  -195.227381c -4.36  -2.63
Writing to output.gpw (mode='')

iter:  15 20:42:39  -195.227330c -2.97  -2.63
iter:  16 20:42:55  -195.227138c -3.58  -2.79
iter:  17 20:43:10  -195.227128c -3.45  -3.20
iter:  18 20:43:25  -195.227135c -3.64  -3.41
iter:  19 20:43:40  -195.227137c -4.34  -3.26
Writing to output.gpw (mode='')

iter:  20 20:43:56  -195.227137c -5.11  -3.69
iter:  21 20:44:11  -195.227135c -5.41  -3.77
iter:  22 20:44:27  -195.227132c -5.47  -3.94
iter:  23 20:44:42  -195.227132c -5.74  -4.09c
iter:  24 20:44:57  -195.227132c -6.07  -4.07c
Writing to output.gpw (mode='')

iter:  25 20:45:13  -195.227129c -5.78  -4.17c
iter:  26 20:45:28  -195.227129c -6.33  -4.47c
iter:  27 20:45:44  -195.227129c -6.54  -4.58c
iter:  28 20:45:59  -195.227128c -6.65  -4.64c
iter:  29 20:46:14  -195.227128c -6.83  -4.68c
Writing to output.gpw (mode='')

iter:  30 20:46:30  -195.227127c -6.78  -4.70c
iter:  31 20:46:45  -195.227126c -6.85  -4.79c
iter:  32 20:47:00  -195.227126c -6.83  -4.96c
iter:  33 20:47:15  -195.227126c -6.81  -5.01c
iter:  34 20:47:31  -195.227126c -6.63  -5.06c
Writing to output.gpw (mode='')

iter:  35 20:47:46  -195.227125c -6.63  -5.09c
iter:  36 20:48:02  -195.227125c -6.75  -5.14c
iter:  37 20:48:17  -195.227125c -6.50  -5.16c
iter:  38 20:48:32  -195.227125c -6.67  -5.19c
iter:  39 20:48:47  -195.227125c -6.55  -5.35c
Writing to output.gpw (mode='')

iter:  40 20:49:03  -195.227125c -6.19  -5.37c
iter:  41 20:49:18  -195.227124c -6.39  -5.45c
iter:  42 20:49:33  -195.227124c -6.63  -5.48c
iter:  43 20:49:49  -195.227123c -6.61  -5.68c
iter:  44 20:50:04  -195.227123c -6.69  -5.75c
Writing to output.gpw (mode='')

iter:  45 20:50:20  -195.227123c -6.31  -5.85c
iter:  46 20:50:35  -195.227123c -6.35  -5.94c
iter:  47 20:50:50  -195.227123c -6.39  -5.96c
iter:  48 20:51:05  -195.227122c -6.47  -5.99c
iter:  49 20:51:20  -195.227122c -6.52  -5.98c
Writing to output.gpw (mode='')

iter:  50 20:51:36  -195.227122c -6.62  -6.21c
iter:  51 20:51:51  -195.227122c -6.68  -6.27c
iter:  52 20:52:07  -195.227121c -6.49  -6.45c
iter:  53 20:52:22  -195.227121c -6.86  -6.55c
iter:  54 20:52:37  -195.227121c -6.69  -6.59c
Writing to output.gpw (mode='')

iter:  55 20:52:53  -195.227121c -6.82  -6.55c
iter:  56 20:53:08  -195.227121c -6.79  -6.65c
iter:  57 20:53:23  -195.227121c -6.45  -6.78c
iter:  58 20:53:39  -195.227120c -6.87  -6.86c
iter:  59 20:53:54  -195.227120c -6.86  -6.84c
Writing to output.gpw (mode='')

iter:  60 20:54:10  -195.227120c -6.85  -6.93c
iter:  61 20:54:25  -195.227120c -7.07  -7.01c
iter:  62 20:54:40  -195.227120c -6.91  -6.85c
iter:  63 20:54:55  -195.227120c -6.87  -6.54c
iter:  64 20:55:11  -195.227120c -6.79  -6.63c
Writing to output.gpw (mode='')

iter:  65 20:55:27  -195.227120c -6.82  -7.05c
iter:  66 20:55:42  -195.227120c -7.24  -6.89c
iter:  67 20:55:58  -195.227120c -7.08  -6.91c
iter:  68 20:56:13  -195.227120c -7.35  -7.05c
iter:  69 20:56:28  -195.227119c -7.11  -7.02c
Writing to output.gpw (mode='')

iter:  70 20:56:44  -195.227119c -7.32  -6.85c
iter:  71 20:56:59  -195.227119c -7.29  -6.73c
iter:  72 20:57:14  -195.227119c -7.11  -6.93c
iter:  73 20:57:30  -195.227119c -7.59c -7.10c

Converged after 73 iterations.

Dipole moment: (-5.410107, -4.119331, 0.000001) |e|*Ang

Energy contributions relative to reference atoms: (reference = -7300.361529)

Kinetic:       +103.700961
Potential:      -81.184209
External:        +0.000000
XC:            -217.379126
Entropy (-ST):   -0.194804
[...]

iter:  10 21:00:08  -195.236765c -3.48  -2.44
iter:  11 21:00:23  -195.236818c -3.34  -2.91
iter:  12 21:00:38  -195.236750c -4.30  -2.97
iter:  13 21:00:53  -195.236787c -4.18  -3.30
iter:  14 21:01:09  -195.236767c -4.86  -3.14
Writing to output.gpw (mode='')

iter:  15 21:01:24  -195.236736c -3.87  -3.27
iter:  16 21:01:40  -195.236742c -4.80  -3.71
iter:  17 21:01:55  -195.236761c -4.44  -3.80
iter:  18 21:02:10  -195.236738c -5.35  -3.41
iter:  19 21:02:25  -195.236741c -5.71  -3.63
Writing to output.gpw (mode='')

iter:  20 21:02:41  -195.236735c -4.70  -3.62
iter:  21 21:02:56  -195.236738c -5.50  -3.92
iter:  22 21:03:12  -195.236739c -5.69  -4.19c
iter:  23 21:03:27  -195.236734c -4.90  -4.23c
iter:  24 21:03:42  -195.236736c -5.82  -3.69
Writing to output.gpw (mode='')

iter:  25 21:03:58  -195.236738c -5.37  -3.96
iter:  26 21:04:13  -195.236738c -6.00  -4.27c
iter:  27 21:04:28  -195.236739c -5.87  -4.02c
iter:  28 21:04:44  -195.236739c -5.80  -4.23c
iter:  29 21:04:59  -195.236738c -6.60  -4.26c
Writing to output.gpw (mode='')

iter:  30 21:05:15  -195.236739c -6.63  -4.29c
iter:  31 21:05:30  -195.236738c -6.98  -4.28c
iter:  32 21:05:45  -195.236739c -6.72  -4.36c
iter:  33 21:06:01  -195.236741c -6.38  -4.49c
iter:  34 21:06:16  -195.236741c -7.04  -4.71c
Writing to output.gpw (mode='')

iter:  35 21:06:31  -195.236741c -7.37  -4.78c
iter:  36 21:06:47  -195.236741c -7.45c -4.85c

Converged after 36 iterations.

Dipole moment: (-5.410072, -4.119272, -0.000013) |e|*Ang

Energy contributions relative to reference atoms: (reference = -7300.361529)

Kinetic:       +103.124258
Potential:      -80.805778
External:        +0.000000
XC:            -217.191601
Entropy (-ST):   -0.195441
Local:           -0.265900
--------------------------
Free energy:   -195.334462
Extrapolated:  -195.236741

Dipole-layer corrected work functions: 3.613755, 3.613791 eV

Showing all kpts
 Kpt  Band  Eigenvalues  Occupancy
  0    16     -3.70528    1.72353
  0    17     -3.48267    0.13546
  0    18     -3.45302    0.07721
  0    19     -3.40013    0.02750

  1    16     -4.00557    1.99921
  1    17     -3.69461    1.66871
  1    18     -3.65355    1.37807
  1    19     -3.60708    0.93312


Fermi level: -3.61377

No gap
Writing to output.gpw (mode='')


Forces in eV/Ang:
  0 Li   -0.00000   -0.00001   -0.05014
  1 Li    0.00000    0.00001   -0.05014
  2 Li   -0.00000    0.00001   -0.05014
  3 Li   -0.00000   -0.00001   -0.05014
  4 Li    0.00000    0.00001   -0.05014
  5 Li    0.00000   -0.00001   -0.05014
  6 Li   -0.00000    0.00000   -0.05014
  7 Li    0.00000    0.00000   -0.05014
  8 Li    0.00000    0.00000   -0.05013
  9 Li    0.00000    0.00000   -0.00376
 10 Li    0.00001    0.00000   -0.00376
 11 Li   -0.00001    0.00000   -0.00376
 12 Li    0.00001    0.00001   -0.00376
 13 Li    0.00000   -0.00002   -0.00376
 14 Li   -0.00001    0.00001   -0.00376
 15 Li   -0.00001   -0.00001   -0.00376
 16 Li    0.00001   -0.00001   -0.00376
 17 Li    0.00000    0.00002   -0.00376
 18 Li    0.00000    0.00001    0.00376
 19 Li    0.00000   -0.00001    0.00375
 20 Li   -0.00000   -0.00001    0.00375
 21 Li   -0.00000    0.00001    0.00375
 22 Li    0.00000   -0.00001    0.00376
 23 Li    0.00000    0.00001    0.00375
 24 Li   -0.00001    0.00000    0.00376
 25 Li    0.00001    0.00000    0.00376
 26 Li    0.00000    0.00000    0.00373
 27 Li    0.00000    0.00000    0.05015
 28 Li   -0.00001    0.00000    0.05014
 29 Li    0.00001    0.00000    0.05014
 30 Li   -0.00000   -0.00001    0.05015
 31 Li    0.00000    0.00001    0.05014
 32 Li    0.00000   -0.00001    0.05015
 33 Li    0.00000    0.00001    0.05015
 34 Li   -0.00000    0.00001    0.05015
 35 Li    0.00000   -0.00001    0.05014

System changes: positions 

Initializing position-dependent things.

Density initialized from wave functions
                                             
                                             
                                             
                                             
                                             
                  Li      Li      Li         
                                             
             Li     LLi     LLi     Li       
       Li     LLi     LLi     Li             
                                             
         Li      Li      Li                  
                  Li      Li      Li         
                                             
             Li     LLi     LLi     Li       
       Li     LLi     LLi     Li             
                                             
         Li      Li      Li                  
                                             
                                             
                                             
                                             
                                             

Positions:
   0 Li    -0.000000    2.286836    9.918849    ( 0.0000,  0.0000,  0.0000)
   1 Li     3.234074    2.286836    9.918849    ( 0.0000,  0.0000,  0.0000)
   2 Li     6.468148    2.286836    9.918849    ( 0.0000,  0.0000,  0.0000)
   3 Li     1.617037    4.573671    9.918849    ( 0.0000,  0.0000,  0.0000)
   4 Li     4.851111    4.573671    9.918849    ( 0.0000,  0.0000,  0.0000)
   5 Li     8.085185    4.573671    9.918849    ( 0.0000,  0.0000,  0.0000)
   6 Li     3.234074    6.860507    9.918849    ( 0.0000,  0.0000,  0.0000)
   7 Li     6.468148    6.860507    9.918849    ( 0.0000,  0.0000,  0.0000)
   8 Li     9.702222    6.860507    9.918849    ( 0.0000,  0.0000,  0.0000)
   9 Li    -0.000000    0.000000   12.245807    ( 0.0000,  0.0000,  0.0000)
  10 Li     3.234074   -0.000000   12.245807    ( 0.0000,  0.0000,  0.0000)
  11 Li     6.468148    0.000000   12.245807    ( 0.0000,  0.0000,  0.0000)
  12 Li     1.617037    2.286836   12.245807    ( 0.0000,  0.0000,  0.0000)
  13 Li     4.851111    2.286835   12.245807    ( 0.0000,  0.0000,  0.0000)
  14 Li     8.085185    2.286836   12.245807    ( 0.0000,  0.0000,  0.0000)
  15 Li     3.234074    4.573671   12.245807    ( 0.0000,  0.0000,  0.0000)
  16 Li     6.468148    4.573671   12.245807    ( 0.0000,  0.0000,  0.0000)
  17 Li     9.702222    4.573672   12.245807    ( 0.0000,  0.0000,  0.0000)
  18 Li     0.000000    2.286836   14.614701    ( 0.0000,  0.0000,  0.0000)
  19 Li     3.234074    2.286835   14.614700    ( 0.0000,  0.0000,  0.0000)
  20 Li     6.468148    2.286835   14.614700    ( 0.0000,  0.0000,  0.0000)
  21 Li     1.617037    4.573671   14.614700    ( 0.0000,  0.0000,  0.0000)
  22 Li     4.851111    4.573671   14.614701    ( 0.0000,  0.0000,  0.0000)
  23 Li     8.085185    4.573671   14.614700    ( 0.0000,  0.0000,  0.0000)
  24 Li     3.234074    6.860507   14.614701    ( 0.0000,  0.0000,  0.0000)
  25 Li     6.468148    6.860507   14.614701    ( 0.0000,  0.0000,  0.0000)
  26 Li     9.702222    6.860507   14.614700    ( 0.0000,  0.0000,  0.0000)
  27 Li    -0.000000    0.000000   16.941658    ( 0.0000,  0.0000,  0.0000)
  28 Li     3.234074    0.000000   16.941658    ( 0.0000,  0.0000,  0.0000)
  29 Li     6.468148    0.000000   16.941658    ( 0.0000,  0.0000,  0.0000)
  30 Li     1.617037    2.286836   16.941658    ( 0.0000,  0.0000,  0.0000)
  31 Li     4.851111    2.286836   16.941658    ( 0.0000,  0.0000,  0.0000)
  32 Li     8.085185    2.286836   16.941658    ( 0.0000,  0.0000,  0.0000)
  33 Li     3.234074    4.573671   16.941658    ( 0.0000,  0.0000,  0.0000)
  34 Li     6.468148    4.573671   16.941658    ( 0.0000,  0.0000,  0.0000)
  35 Li     9.702222    4.573671   16.941658    ( 0.0000,  0.0000,  0.0000)

Unit cell:
           periodic     x           y           z      points  spacing
  1. axis:    yes    9.702222    0.000000    0.000000    48     0.1650
  2. axis:    yes    4.851111    6.860507    0.000000    48     0.1429
  3. axis:    no     0.000000    0.000000   26.860507   168     0.1599

  Lengths:   9.702222   8.402371  26.860507
  Angles:   90.000000  90.000000  54.735610

Effective grid spacing dv^(1/3) = 0.1665

     iter     time        total  log10-change:
                         energy  eigst   dens
iter:   1 21:07:06  -195.522474  +0.03
iter:   2 21:07:22  -195.356298  -1.52  -1.20
iter:   3 21:07:37  -195.240794  -0.55  -1.36
iter:   4 21:07:52  -195.241506  -1.45  -2.01
Writing to output.gpw (mode='')

iter:   5 21:08:08  -195.243638c -2.70  -2.38
iter:   6 21:08:23  -195.244745c -3.11  -2.46
iter:   7 21:08:39  -195.244518c -2.56  -2.43
iter:   8 21:08:54  -195.244858c -2.85  -2.88
iter:   9 21:09:09  -195.245051c -3.54  -2.97
Writing to output.gpw (mode='')

iter:  10 21:09:25  -195.245652c -4.02  -3.03
iter:  11 21:09:41  -195.245045c -2.78  -2.53
iter:  12 21:09:56  -195.245107c -3.46  -3.57
iter:  13 21:10:11  -195.245132c -3.29  -3.53
iter:  14 21:10:26  -195.245155c -4.17  -3.44
Writing to output.gpw (mode='')

iter:  15 21:10:42  -195.245169c -4.55  -3.86
iter:  16 21:10:57  -195.245160c -3.86  -3.71
iter:  17 21:11:13  -195.245170c -4.68  -3.40
iter:  18 21:11:28  -195.245169c -4.71  -3.98
iter:  19 21:11:43  -195.245179c -4.80  -3.76
Writing to output.gpw (mode='')

iter:  20 21:11:59  -195.245170c -4.69  -3.92
iter:  21 21:12:15  -195.245171c -5.02  -3.74
iter:  22 21:12:30  -195.245178c -5.22  -3.76
iter:  23 21:12:45  -195.245178c -5.46  -4.12c
iter:  24 21:13:00  -195.245179c -5.53  -4.05c
Writing to output.gpw (mode='')

iter:  25 21:13:16  -195.245177c -5.86  -4.18c
iter:  26 21:13:31  -195.245178c -6.03  -4.40c
iter:  27 21:13:47  -195.245178c -6.15  -4.39c
iter:  28 21:14:02  -195.245177c -5.99  -4.38c
iter:  29 21:14:17  -195.245178c -6.22  -4.34c
Writing to output.gpw (mode='')

iter:  30 21:14:33  -195.245179c -6.29  -4.46c
iter:  31 21:14:48  -195.245179c -6.49  -4.52c
iter:  32 21:15:04  -195.245179c -6.69  -4.44c
iter:  33 21:15:19  -195.245179c -6.88  -4.60c
iter:  34 21:15:34  -195.245178c -6.89  -4.67c
Writing to output.gpw (mode='')

iter:  35 21:15:50  -195.245179c -7.00  -4.54c
iter:  36 21:16:05  -195.245179c -7.02  -4.66c
iter:  37 21:16:20  -195.245179c -7.02  -4.78c
iter:  38 21:16:36  -195.245179c -7.13  -4.81c
iter:  39 21:16:51  -195.245179c -7.30  -4.95c
Writing to output.gpw (mode='')

iter:  40 21:17:07  -195.245179c -7.44c -5.00c

Converged after 40 iterations.

Dipole moment: (-5.410048, -4.119217, 0.000014) |e|*Ang

Energy contributions relative to reference atoms: (reference = -7300.361529)

Kinetic:       +102.554286
Potential:      -80.431311
External:        +0.000000
XC:            -217.005611
Entropy (-ST):   -0.196137
Local:           -0.264474
--------------------------
Free energy:   -195.343247
Extrapolated:  -195.245179

Dipole-layer corrected work functions: 3.614192, 3.614154 eV

Showing all kpts
 Kpt  Band  Eigenvalues  Occupancy
  0    16     -3.70762    1.73269
  0    17     -3.48125    0.13095
  0    18     -3.44876    0.07058
  0    19     -3.40559    0.03038

  1    16     -4.00835    1.99925
  1    17     -3.69432    1.66487
  1    18     -3.64894    1.33432
  1    19     -3.61041    0.96237


Fermi level: -3.61417

No gap

Forces in eV/Ang:
  0 Li    0.00000   -0.00000   -0.04589
  1 Li    0.00000    0.00000   -0.04588
  2 Li   -0.00000    0.00000   -0.04588
  3 Li   -0.00000   -0.00000   -0.04588
  4 Li    0.00000    0.00000   -0.04589
  5 Li    0.00000   -0.00000   -0.04588
  6 Li   -0.00000    0.00000   -0.04589
  7 Li    0.00000    0.00000   -0.04589
  8 Li    0.00000    0.00000   -0.04588
  9 Li    0.00000    0.00000    0.00033
 10 Li    0.00001    0.00000    0.00033
 11 Li   -0.00001    0.00000    0.00033
 12 Li    0.00000    0.00000    0.00033
 13 Li    0.00000   -0.00001    0.00033
 14 Li   -0.00000    0.00000    0.00033
 15 Li   -0.00000   -0.00000    0.00033
 16 Li    0.00000   -0.00000    0.00033
 17 Li   -0.00000    0.00001    0.00033
 18 Li    0.00000    0.00001   -0.00033
 19 Li    0.00000   -0.00001   -0.00032
 20 Li   -0.00000   -0.00001   -0.00032
 21 Li   -0.00000    0.00001   -0.00032
 22 Li    0.00000   -0.00001   -0.00033
 23 Li    0.00000    0.00001   -0.00032
 24 Li   -0.00001    0.00000   -0.00033
 25 Li    0.00001    0.00000   -0.00033
 26 Li    0.00000    0.00000   -0.00032
 27 Li    0.00000    0.00000    0.04587
 28 Li    0.00000    0.00000    0.04585
 29 Li   -0.00000    0.00000    0.04585
 30 Li    0.00000   -0.00000    0.04586
 31 Li    0.00000    0.00000    0.04586
 32 Li   -0.00000   -0.00000    0.04586
 33 Li   -0.00000    0.00000    0.04586
 34 Li    0.00000    0.00000    0.04586
 35 Li    0.00000   -0.00000    0.04586

Timing:                                      incl.     excl.
-------------------------------------------------------------------
Density initialized from wave functions:     3.014     1.047   0.0% |
 Symmetrize density:                         1.967     1.967   0.0% |
Forces:                                      9.126     9.126   0.1% |
Hamiltonian:                               319.379     0.002   0.0% |
 Atomic:                                     1.221     0.031   0.0% |
  XC Correction:                             1.191     1.191   0.0% |
 Calculate atomic Hamiltonians:              0.960     0.960   0.0% |
 Communicate:                                1.475     1.475   0.0% |
 Hartree integrate/restrict:                 0.360     0.360   0.0% |
 Initialize Hamiltonian:                     0.000     0.000   0.0% |
 Poisson:                                    5.869     2.011   0.0% |
  Communicate from 1D:                       0.686     0.686   0.0% |
  Communicate from 2D:                       0.992     0.992   0.0% |
  Communicate to 1D:                         0.380     0.380   0.0% |
  Communicate to 2D:                         0.722     0.722   0.0% |
  FFT 1D:                                    0.538     0.538   0.0% |
  FFT 2D:                                    0.539     0.539   0.0% |
 XC 3D grid:                               309.463    17.840   0.1% |
  VdW-DF integral:                         291.623     0.928   0.0% |
   Convolution:                             28.132    28.132   0.2% |
   FFT:                                      6.069     6.069   0.0% |
   gather:                                 189.503   189.503   1.2% |
   hmm1:                                     5.028     5.028   0.0% |
   hmm2:                                     6.604     6.604   0.0% |
   iFFT:                                     6.319     6.319   0.0% |
   potential:                               36.783     0.369   0.0% |
    collect:                                 4.964     4.964   0.0% |
    p1:                                     15.208    15.208   0.1% |
    p2:                                      9.964     9.964   0.1% |
    sum:                                     6.277     6.277   0.0% |
   splines:                                 12.259    12.259   0.1% |
 vbar:                                       0.030     0.030   0.0% |
LCAO initialization:                         3.326     0.056   0.0% |
 LCAO eigensolver:                           1.466     0.001   0.0% |
  Calculate projections:                     0.000     0.000   0.0% |
  DenseAtomicCorrection:                     0.000     0.000   0.0% |
  Distribute overlap matrix:                 1.240     1.240   0.0% |
  Orbital Layouts:                           0.225     0.225   0.0% |
  Potential matrix:                          0.000     0.000   0.0% |
  Sum over cells:                            0.001     0.001   0.0% |
 LCAO to grid:                               0.681     0.681   0.0% |
 Set positions (LCAO WFS):                   1.123     0.756   0.0% |
  Basic WFS set positions:                   0.020     0.020   0.0% |
  Basis functions set positions:             0.001     0.001   0.0% |
  P tci:                                     0.000     0.000   0.0% |
  ST tci:                                    0.119     0.119   0.0% |
  mktci:                                     0.228     0.228   0.0% |
Redistribute:                                0.007     0.007   0.0% |
SCF-cycle:                               14812.485   147.685   1.0% |
 Davidson:                                2374.497  1119.130   7.4% |--|
  Apply hamiltonian:                       158.222   158.222   1.0% |
  Subspace diag:                           275.812     0.077   0.0% |
   calc_h_matrix:                          187.556    31.845   0.2% |
    Apply hamiltonian:                     155.711   155.711   1.0% |
   diagonalize:                             11.868    11.868   0.1% |
   rotate_psi:                              76.311    76.311   0.5% |
  calc. matrices:                          674.313   247.372   1.6% ||
   Apply hamiltonian:                      426.941   426.941   2.8% ||
  diagonalize:                               2.540     2.540   0.0% |
  rotate_psi:                              144.478   144.478   1.0% |
 Density:                                  151.273     0.028   0.0% |
  Atomic density matrices:                   7.271     7.271   0.0% |
  Mix:                                      31.995    31.995   0.2% |
  Multipole moments:                         1.511     1.511   0.0% |
  Pseudo density:                          110.467     9.213   0.1% |
   Symmetrize density:                     101.254   101.254   0.7% |
 Hamiltonian:                            12136.122     0.084   0.0% |
  Atomic:                                   57.030     0.526   0.0% |
   XC Correction:                           56.505    56.505   0.4% |
  Calculate atomic Hamiltonians:            42.439    42.439   0.3% |
  Communicate:                              74.104    74.104   0.5% |
  Hartree integrate/restrict:               17.408    17.408   0.1% |
  Poisson:                                 283.754   105.317   0.7% |
   Communicate from 1D:                     33.589    33.589   0.2% |
   Communicate from 2D:                     33.483    33.483   0.2% |
   Communicate to 1D:                       21.431    21.431   0.1% |
   Communicate to 2D:                       33.368    33.368   0.2% |
   FFT 1D:                                  25.954    25.954   0.2% |
   FFT 2D:                                  30.611    30.611   0.2% |
  XC 3D grid:                            11659.472   814.904   5.4% |-|
   VdW-DF integral:                      10844.568    50.113   0.3% |
    Convolution:                          1386.514  1386.514   9.1% |---|
    FFT:                                   314.294   314.294   2.1% ||
    gather:                               6375.139  6375.139  42.0% |----------------|
    hmm1:                                  258.081   258.081   1.7% ||
    hmm2:                                  345.071   345.071   2.3% ||
    iFFT:                                  328.901   328.901   2.2% ||
    potential:                            1786.450    20.956   0.1% |
     collect:                              222.329   222.329   1.5% ||
     p1:                                   750.610   750.610   4.9% |-|
     p2:                                   534.930   534.930   3.5% ||
     sum:                                  257.625   257.625   1.7% ||
    splines:                                 0.006     0.006   0.0% |
  vbar:                                      1.831     1.831   0.0% |
 Orthonormalize:                             2.908     0.002   0.0% |
  calc_s_matrix:                             0.252     0.252   0.0% |
  inverse-cholesky:                          1.767     1.767   0.0% |
  projections:                               0.000     0.000   0.0% |
  rotate_psi_s:                              0.887     0.887   0.0% |
Set symmetry:                                0.017     0.017   0.0% |
Other:                                      40.050    40.050   0.3% |
-------------------------------------------------------------------
Total:                                             15187.404 100.0%

Memory usage: 757.33 MiB
Date: Wed Jan 18 21:17:08 2023
