
  ___ ___ ___ _ _ _  
 |   |   |_  | | | | 
 | | | | | . | | | | 
 |__ |  _|___|_____|  22.8.0
 |___|_|             

User:   vazumah@c02.hercules
Date:   Tue Jan 17 05:17:38 2023
Arch:   x86_64
Pid:    1438
CWD:    /home/vazumah/Python_projects/LiNRR/autocad_start/bulk_relaxations/Al_bulk_fcc
Python: 3.10.8
gpaw:   /home/vazumah/.conda/envs/GPAW/lib/python3.10/site-packages/gpaw
_gpaw:  /home/vazumah/.conda/envs/GPAW/lib/python3.10/site-packages/
        _gpaw.cpython-310-x86_64-linux-gnu.so
ase:    /home/vazumah/.conda/envs/GPAW/lib/python3.10/site-packages/ase (version 3.22.1)
numpy:  /home/vazumah/.conda/envs/GPAW/lib/python3.10/site-packages/numpy (version 1.24.1)
scipy:  /home/vazumah/.conda/envs/GPAW/lib/python3.10/site-packages/scipy (version 1.10.0)
libxc:  5.2.3
units:  Angstrom and eV
cores: 24
OpenMP: True
OMP_NUM_THREADS: 1

Input parameters:
  h: 0.16
  kpts: {size: [2, 2, 1]}
  occupations: {name: fermi-dirac,
                width: 0.05}
  xc: BEEF-vdW

System changes: positions, numbers, cell, pbc, initial_charges, initial_magmoms 

Initialize ...

species:
  Al:
    name: Aluminium
    id: 0292cae29f5d6237e50f6abdd43a7bdd
    Z: 13.0
    valence: 3
    core: 10
    charge: 0.0
    file: /home/vazumah/.conda/envs/GPAW/share/gpaw/Al.PBE.gz
    compensation charges: {type: gauss,
                           rc: 0.34,
                           lmax: 2}
    cutoffs: {filter: 1.91,
              core: 2.36}
    valence states:
      #              energy  rcut
      - 3s(2.00)    -7.753   1.085
      - 3p(1.00)    -2.712   1.085
      -  s          19.459   1.085
      -  p          24.499   1.085
      -  d           0.000   1.085
  
    # Using partial waves for Al as LCAO basis

Reference energy: -6603.423265  # eV

Spin-paired calculation

Convergence criteria:
 Maximum [total energy] change in last 3 cyles: 0.0005 eV / electron
 Maximum integral of absolute [dens]ity change: 0.0001 electrons / valence electron
 Maximum integral of absolute [eigenst]ate change: 4e-08 eV^2 / valence electron
 Maximum number of scf [iter]ations: 333
 (Square brackets indicate name in SCF output, whereas a 'c' in
 the SCF output indicates the quantity has converged.)

Symmetries present (total): 48

  ( 1  0  0)  ( 1  0  0)  ( 1  0  0)  ( 1  0  0)  ( 1  0 -1)  ( 1  0 -1)
  ( 1  0 -1)  ( 1 -1  0)  ( 0  1  0)  ( 0  0  1)  ( 1  0  0)  ( 1 -1  0)
  ( 1 -1  0)  ( 1  0 -1)  ( 0  0  1)  ( 0  1  0)  ( 1 -1  0)  ( 1  0  0)

  ( 1  0 -1)  ( 1  0 -1)  ( 1 -1  0)  ( 1 -1  0)  ( 1 -1  0)  ( 1 -1  0)
  ( 0  1 -1)  ( 0  0 -1)  ( 1  0  0)  ( 1  0 -1)  ( 0 -1  1)  ( 0 -1  0)
  ( 0  0 -1)  ( 0  1 -1)  ( 1  0 -1)  ( 1  0  0)  ( 0 -1  0)  ( 0 -1  1)

  ( 0  1  0)  ( 0  1  0)  ( 0  1  0)  ( 0  1  0)  ( 0  1 -1)  ( 0  1 -1)
  ( 1  0  0)  ( 0  1 -1)  ( 0  0  1)  (-1  1  0)  ( 1  0 -1)  ( 0  1  0)
  ( 0  0  1)  (-1  1  0)  ( 1  0  0)  ( 0  1 -1)  ( 0  0 -1)  (-1  1  0)

  ( 0  1 -1)  ( 0  1 -1)  ( 0  0  1)  ( 0  0  1)  ( 0  0  1)  ( 0  0  1)
  ( 0  0 -1)  (-1  1  0)  ( 1  0  0)  ( 0  1  0)  ( 0 -1  1)  (-1  0  1)
  ( 1  0 -1)  ( 0  1  0)  ( 0  1  0)  ( 1  0  0)  (-1  0  1)  ( 0 -1  1)

  ( 0  0 -1)  ( 0  0 -1)  ( 0  0 -1)  ( 0  0 -1)  ( 0 -1  1)  ( 0 -1  1)
  ( 1  0 -1)  ( 0  1 -1)  ( 0 -1  0)  (-1  0  0)  ( 1 -1  0)  ( 0  0  1)
  ( 0  1 -1)  ( 1  0 -1)  (-1  0  0)  ( 0 -1  0)  ( 0 -1  0)  (-1  0  1)

  ( 0 -1  1)  ( 0 -1  1)  ( 0 -1  0)  ( 0 -1  0)  ( 0 -1  0)  ( 0 -1  0)
  ( 0 -1  0)  (-1  0  1)  ( 1 -1  0)  ( 0  0 -1)  ( 0 -1  1)  (-1  0  0)
  ( 1 -1  0)  ( 0  0  1)  ( 0 -1  1)  (-1  0  0)  ( 1 -1  0)  ( 0  0 -1)

  (-1  1  0)  (-1  1  0)  (-1  1  0)  (-1  1  0)  (-1  0  1)  (-1  0  1)
  ( 0  1  0)  ( 0  1 -1)  (-1  0  1)  (-1  0  0)  ( 0  0  1)  ( 0 -1  1)
  ( 0  1 -1)  ( 0  1  0)  (-1  0  0)  (-1  0  1)  ( 0 -1  1)  ( 0  0  1)

  (-1  0  1)  (-1  0  1)  (-1  0  0)  (-1  0  0)  (-1  0  0)  (-1  0  0)
  (-1  1  0)  (-1  0  0)  ( 0  0 -1)  ( 0 -1  0)  (-1  1  0)  (-1  0  1)
  (-1  0  0)  (-1  1  0)  ( 0 -1  0)  ( 0  0 -1)  (-1  0  1)  (-1  1  0)
Note: your k-points are not as symmetric as your crystal!

4 k-points: 2 x 2 x 1 Monkhorst-Pack grid
2 k-points in the irreducible part of the Brillouin zone
       k-points in crystal coordinates                weights
   0:     0.25000000   -0.25000000    0.00000000          2/4
   1:     0.25000000    0.25000000    0.00000000          2/4

Wave functions: Uniform real-space grid
  Kinetic energy operator: 12*3+1=37 point O(h^6) finite-difference Laplacian
  ScaLapack parameters: grid=1x1, blocksize=None
  Wavefunction extrapolation:
    Improved wavefunction reuse through dual PAW basis 

Occupation numbers: Fermi-Dirac:
  width: 0.0500  # eV
 

Eigensolver
   Davidson(niter=2) 

Densities:
  Coarse grid: 16*16*16 grid
  Fine grid: 32*32*32 grid
  Total Charge: 0.000000 

Density mixing:
  Method: separate
  Backend: pulay
  Linear mixing parameter: 0.05
  old densities: 5
  Damping of long wavelength oscillations: 50 

Hamiltonian:
  XC and Coulomb potentials evaluated on a 32*32*32 grid
  Using the BEEF-vdW Exchange-Correlation functional
  Interpolation: tri-quintic (5. degree polynomial)
  Poisson solver: FastPoissonSolver using
    Stencil: 12*3+1=37 point O(h^6) finite-difference Laplacian
    FFT axes: [0, 1, 2]
    FST axes: []
 

XC parameters: BEEF-vdW with 2 nearest neighbor stencil

Memory estimate:
  Process memory now: 83.54 MiB
  Calculator: 0.81 MiB
    Density: 0.59 MiB
      Arrays: 0.07 MiB
      Localized functions: 0.49 MiB
      Mixer: 0.03 MiB
    Hamiltonian: 0.08 MiB
      Arrays: 0.05 MiB
      XC: 0.00 MiB
      Poisson: 0.00 MiB
      vbar: 0.04 MiB
    Wavefunctions: 0.14 MiB
      Arrays psit_nG: 0.02 MiB
      Eigensolver: 0.06 MiB
      Projections: 0.00 MiB
      Projectors: 0.06 MiB

Total number of cores used: 24
Parallelization over k-points: 2
Domain decomposition: 3 x 2 x 2

Number of atoms: 1
Number of atomic orbitals: 4
Number of bands in calculation: 4
Number of valence electrons: 3
Bands to converge: occupied

... initialized

Initializing position-dependent things.

Density initialized from atomic densities
Creating initial wave functions:
  4 bands from LCAO basis set

                
                
                
       Al       
                
                
                
                

Positions:
   0 Al     0.000000    0.000000    0.000000    ( 0.0000,  0.0000,  0.0000)

Unit cell:
           periodic     x           y           z      points  spacing
  1. axis:    yes    0.000000    2.025000    2.025000    16     0.1461
  2. axis:    yes    2.025000    0.000000    2.025000    16     0.1461
  3. axis:    yes    2.025000    2.025000    0.000000    16     0.1461

  Lengths:   2.863782   2.863782   2.863782
  Angles:   60.000000  60.000000  60.000000

Effective grid spacing dv^(1/3) = 0.1595

     iter     time        total  log10-change:
                         energy  eigst   dens
iter:   1 05:18:08   -29.001775
iter:   2 05:18:25   -29.036304  +0.00  -0.84
iter:   3 05:18:43   -28.991487  -0.73  -0.83
iter:   4 05:19:00   -29.053452  -1.19  -0.60
Writing to output.gpw (mode='')

iter:   5 05:19:19   -29.053662  -1.91  -2.20
iter:   6 05:19:38   -29.053690c -2.51  -2.05
iter:   7 05:19:57   -29.053888c -3.05  -2.01
iter:   8 05:20:14   -29.053891c -3.72  -3.34
iter:   9 05:20:31   -29.053891c -4.35  -3.48
Writing to output.gpw (mode='')

iter:  10 05:20:50   -29.053893c -4.65  -3.50
iter:  11 05:21:08   -29.053893c -5.42  -3.43
iter:  12 05:21:25   -29.053893c -6.02  -4.52c
iter:  13 05:21:44   -29.053893c -6.66  -4.68c
iter:  14 05:22:04   -29.053893c -7.44c -4.85c

Converged after 14 iterations.

Dipole moment: (-0.577638, -0.577638, -0.577638) |e|*Ang

Energy contributions relative to reference atoms: (reference = -6603.423265)

Kinetic:         -1.125623
Potential:       +1.748009
External:        +0.000000
XC:             -29.677480
Entropy (-ST):   -0.000000
Local:           +0.001201
--------------------------
Free energy:    -29.053894
Extrapolated:   -29.053893

Showing all kpts
 Kpt  Band  Eigenvalues  Occupancy
  0     0      0.29800    2.00000
  0     1      8.16833    2.00000
  0     2      9.72049    0.00000

  1     0     -1.90519    2.00000
  1     1     14.45608    0.00000
  1     2     14.45615    0.00000


Fermi level: 8.94440

No gap
Writing to output.gpw (mode='')


Forces in eV/Ang:
  0 Al    0.00000   -0.00000   -0.00000

Timing:                              incl.     excl.
-----------------------------------------------------------
Forces:                              0.092     0.092   0.0% |
Hamiltonian:                        25.795     0.000   0.0% |
 Atomic:                             0.216     0.216   0.1% |
  XC Correction:                     0.000     0.000   0.0% |
 Calculate atomic Hamiltonians:      0.025     0.025   0.0% |
 Communicate:                        0.009     0.009   0.0% |
 Hartree integrate/restrict:         0.039     0.039   0.0% |
 Initialize Hamiltonian:             0.000     0.000   0.0% |
 Poisson:                            0.190     0.040   0.0% |
  Communicate from 1D:               0.038     0.038   0.0% |
  Communicate from 2D:               0.071     0.071   0.0% |
  Communicate to 1D:                 0.017     0.017   0.0% |
  Communicate to 2D:                 0.023     0.023   0.0% |
  FFT 1D:                            0.000     0.000   0.0% |
  FFT 2D:                            0.001     0.001   0.0% |
 XC 3D grid:                        25.315     0.467   0.2% |
  VdW-DF integral:                  24.847     0.004   0.0% |
   Convolution:                      0.011     0.011   0.0% |
   FFT:                              0.001     0.001   0.0% |
   gather:                          14.540    14.540   5.5% |-|
   hmm1:                             0.003     0.003   0.0% |
   hmm2:                             0.002     0.002   0.0% |
   iFFT:                             0.002     0.002   0.0% |
   potential:                        0.246     0.000   0.0% |
    collect:                         0.080     0.080   0.0% |
    p1:                              0.011     0.011   0.0% |
    p2:                              0.004     0.004   0.0% |
    sum:                             0.150     0.150   0.1% |
   splines:                         10.039    10.039   3.8% |-|
 vbar:                               0.000     0.000   0.0% |
LCAO initialization:                 0.340     0.039   0.0% |
 LCAO eigensolver:                   0.052     0.000   0.0% |
  Calculate projections:             0.000     0.000   0.0% |
  DenseAtomicCorrection:             0.000     0.000   0.0% |
  Distribute overlap matrix:         0.011     0.011   0.0% |
  Orbital Layouts:                   0.031     0.031   0.0% |
  Potential matrix:                  0.010     0.010   0.0% |
  Sum over cells:                    0.001     0.001   0.0% |
 LCAO to grid:                       0.001     0.001   0.0% |
 Set positions (LCAO WFS):           0.248     0.049   0.0% |
  Basic WFS set positions:           0.005     0.005   0.0% |
  Basis functions set positions:     0.000     0.000   0.0% |
  P tci:                             0.051     0.051   0.0% |
  ST tci:                            0.064     0.064   0.0% |
  mktci:                             0.079     0.079   0.0% |
SCF-cycle:                         237.447     3.597   1.3% ||
 Davidson:                          21.948    15.032   5.6% |-|
  Apply hamiltonian:                 1.687     1.687   0.6% |
  Subspace diag:                     2.077     0.002   0.0% |
   calc_h_matrix:                    1.652     0.006   0.0% |
    Apply hamiltonian:               1.646     1.646   0.6% |
   diagonalize:                      0.420     0.420   0.2% |
   rotate_psi:                       0.003     0.003   0.0% |
  calc. matrices:                    3.141     0.598   0.2% |
   Apply hamiltonian:                2.543     2.543   1.0% |
  diagonalize:                       0.007     0.007   0.0% |
  rotate_psi:                        0.003     0.003   0.0% |
 Density:                            3.084     0.000   0.0% |
  Atomic density matrices:           0.163     0.163   0.1% |
  Mix:                               1.923     1.923   0.7% |
  Multipole moments:                 0.048     0.048   0.0% |
  Pseudo density:                    0.950     0.014   0.0% |
   Symmetrize density:               0.936     0.936   0.4% |
 Hamiltonian:                      208.775     0.002   0.0% |
  Atomic:                            3.576     3.576   1.3% ||
   XC Correction:                    0.000     0.000   0.0% |
  Calculate atomic Hamiltonians:     0.125     0.125   0.0% |
  Communicate:                       0.190     0.190   0.1% |
  Hartree integrate/restrict:        0.418     0.418   0.2% |
  Poisson:                           1.931     0.240   0.1% |
   Communicate from 1D:              0.421     0.421   0.2% |
   Communicate from 2D:              0.555     0.555   0.2% |
   Communicate to 1D:                0.283     0.283   0.1% |
   Communicate to 2D:                0.410     0.410   0.2% |
   FFT 1D:                           0.002     0.002   0.0% |
   FFT 2D:                           0.018     0.018   0.0% |
  XC 3D grid:                      202.532     5.687   2.1% ||
   VdW-DF integral:                196.845     0.029   0.0% |
    Convolution:                     0.164     0.164   0.1% |
    FFT:                             0.018     0.018   0.0% |
    gather:                        190.977   190.977  71.6% |----------------------------|
    hmm1:                            0.046     0.046   0.0% |
    hmm2:                            0.044     0.044   0.0% |
    iFFT:                            0.019     0.019   0.0% |
    potential:                       5.547     0.004   0.0% |
     collect:                        1.952     1.952   0.7% |
     p1:                             0.174     0.174   0.1% |
     p2:                             0.110     0.110   0.0% |
     sum:                            3.306     3.306   1.2% |
    splines:                         0.000     0.000   0.0% |
  vbar:                              0.001     0.001   0.0% |
 Orthonormalize:                     0.043     0.000   0.0% |
  calc_s_matrix:                     0.000     0.000   0.0% |
  inverse-cholesky:                  0.019     0.019   0.0% |
  projections:                       0.024     0.024   0.0% |
  rotate_psi_s:                      0.000     0.000   0.0% |
Set symmetry:                        0.031     0.031   0.0% |
Other:                               2.902     2.902   1.1% |
-----------------------------------------------------------
Total:                                       266.606 100.0%

Memory usage: 105.30 MiB
Date: Tue Jan 17 05:22:05 2023
