
  ___ ___ ___ _ _ _  
 |   |   |_  | | | | 
 | | | | | . | | | | 
 |__ |  _|___|_____|  22.8.0
 |___|_|             

User:   vazumah@c13.hercules
Date:   Thu Jan 19 00:49:25 2023
Arch:   x86_64
Pid:    14800
CWD:    /home/vazumah/Python_projects/LiNRR/autocad_start/slab_experiments/fixed_slab_def_vacuum/Na/bcc110/substrate
Python: 3.10.8
gpaw:   /home/vazumah/.conda/envs/GPAW/lib/python3.10/site-packages/gpaw
_gpaw:  /home/vazumah/.conda/envs/GPAW/lib/python3.10/site-packages/
        _gpaw.cpython-310-x86_64-linux-gnu.so
ase:    /home/vazumah/.conda/envs/GPAW/lib/python3.10/site-packages/ase (version 3.22.1)
numpy:  /home/vazumah/.conda/envs/GPAW/lib/python3.10/site-packages/numpy (version 1.24.1)
scipy:  /home/vazumah/.conda/envs/GPAW/lib/python3.10/site-packages/scipy (version 1.10.0)
libxc:  5.2.3
units:  Angstrom and eV
cores: 24
OpenMP: True
OMP_NUM_THREADS: 1

Input parameters:
  eigensolver: {name: dav,
                niter: 3}
  h: 0.16
  kpts: {size: [4, 4, 1]}
  maxiter: 999
  mixer: {backend: pulay,
          beta: 0.02,
          method: separate,
          nmaxold: 5,
          weight: 100}
  occupations: {name: fermi-dirac,
                width: 0.05}
  poissonsolver: {dipolelayer: xy}
  xc: BEEF-vdW

System changes: positions, numbers, cell, pbc, initial_charges, initial_magmoms 

Initialize ...

species:
  Na:
    name: Sodium
    id: d7ecbc49209718622bcbe287195dca2a
    Z: 11.0
    valence: 7
    core: 4
    charge: 0.0
    file: /home/vazumah/.conda/envs/GPAW/share/gpaw/Na.PBE.gz
    compensation charges: {type: gauss,
                           rc: 0.37,
                           lmax: 2}
    cutoffs: {filter: 2.17,
              core: 2.59}
    valence states:
      #              energy  rcut
      - 3s(1.00)    -2.744   1.201
      - 2p(6.00)   -28.672   1.217
      - 3p(0.00)    -0.743   1.217
      -  s          24.468   1.201
      -  d           0.000   1.238
  
    # Using partial waves for Na as LCAO basis

Reference energy: -159069.977916  # eV

Spin-paired calculation

Convergence criteria:
 Maximum [total energy] change in last 3 cyles: 0.0005 eV / electron
 Maximum integral of absolute [dens]ity change: 0.0001 electrons / valence electron
 Maximum integral of absolute [eigenst]ate change: 4e-08 eV^2 / valence electron
 Maximum number of scf [iter]ations: 999
 (Square brackets indicate name in SCF output, whereas a 'c' in
 the SCF output indicates the quantity has converged.)

Symmetries present (total): 4

  ( 1  0  0)  ( 1  0  0)  (-1  0  0)  (-1  0  0)
  ( 1 -1  0)  ( 0  1  0)  ( 0 -1  0)  (-1  1  0)
  ( 0  0  1)  ( 0  0  1)  ( 0  0  1)  ( 0  0  1)
Note: your k-points are not as symmetric as your crystal!

16 k-points: 4 x 4 x 1 Monkhorst-Pack grid
8 k-points in the irreducible part of the Brillouin zone
       k-points in crystal coordinates                weights
   0:     0.12500000   -0.37500000    0.00000000          2/16
   1:     0.12500000   -0.12500000    0.00000000          2/16
   2:     0.12500000    0.12500000    0.00000000          2/16
   3:     0.12500000    0.37500000    0.00000000          2/16
   4:     0.37500000   -0.37500000    0.00000000          2/16
   5:     0.37500000   -0.12500000    0.00000000          2/16
   6:     0.37500000    0.12500000    0.00000000          2/16
   7:     0.37500000    0.37500000    0.00000000          2/16

Wave functions: Uniform real-space grid
  Kinetic energy operator: 8*3+1=25 point O(h^6) finite-difference Laplacian
  ScaLapack parameters: grid=1x1, blocksize=None
  Wavefunction extrapolation:
    Improved wavefunction reuse through dual PAW basis 

Occupation numbers: Fermi-Dirac:
  width: 0.0500  # eV
 

Eigensolver
   Davidson(niter=3) 

Densities:
  Coarse grid: 64*64*180 grid
  Fine grid: 128*128*360 grid
  Total Charge: 0.000000 

Density mixing:
  Method: separate
  Backend: pulay
  Linear mixing parameter: 0.02
  old densities: 5
  Damping of long wavelength oscillations: 100 

Hamiltonian:
  XC and Coulomb potentials evaluated on a 128*128*360 grid
  Using the BEEF-vdW Exchange-Correlation functional
  Interpolation: tri-quintic (5. degree polynomial)
  Poisson solver: FastPoissonSolver using
    Stencil: 8*3+1=25 point O(h^6) finite-difference Laplacian
    FFT axes: [0, 1]
    FST axes: [2]

Dipole correction along z-axis 

XC parameters: BEEF-vdW with 2 nearest neighbor stencil

Memory estimate:
  Process memory now: 259.89 MiB
  Calculator: 1384.97 MiB
    Density: 161.96 MiB
      Arrays: 48.31 MiB
      Localized functions: 95.21 MiB
      Mixer: 18.44 MiB
    Hamiltonian: 38.60 MiB
      Arrays: 31.59 MiB
      XC: 0.00 MiB
      Poisson: 0.00 MiB
      vbar: 7.00 MiB
    Wavefunctions: 1184.41 MiB
      Arrays psit_nG: 575.25 MiB
      Eigensolver: 597.41 MiB
      Projections: 0.37 MiB
      Projectors: 11.38 MiB

Total number of cores used: 24
Parallelization over k-points: 8
Domain decomposition: 1 x 1 x 3

Number of atoms: 36
Number of atomic orbitals: 252
Number of bands in calculation: 156
Number of valence electrons: 252
Bands to converge: occupied

... initialized

Initializing position-dependent things.

Density initialized from atomic densities
Creating initial wave functions:
  156 bands from LCAO basis set

                                                     
                                                     
                                                     
                                                     
                                                     
                                                     
                     Na         Na        Na         
              Na       NaNa      NaNa       Na       
                                                     
       Na       NaNa      NaNa       Na              
                                                     
         Na        Na         Na                     
                                                     
                     Na         Na        Na         
                                                     
              Na       NaNa      NaNa       Na       
                                                     
       Na       NaNa      NaNa       Na              
         Na        Na         Na                     
                                                     
                                                     
                                                     
                                                     
                                                     
                                                     

Positions:
   0 Na     0.000000    2.991062   10.000000    ( 0.0000,  0.0000,  0.0000)
   1 Na     4.230000    2.991062   10.000000    ( 0.0000,  0.0000,  0.0000)
   2 Na     8.460000    2.991062   10.000000    ( 0.0000,  0.0000,  0.0000)
   3 Na     2.115000    5.982123   10.000000    ( 0.0000,  0.0000,  0.0000)
   4 Na     6.345000    5.982123   10.000000    ( 0.0000,  0.0000,  0.0000)
   5 Na    10.575000    5.982123   10.000000    ( 0.0000,  0.0000,  0.0000)
   6 Na     4.230000    8.973185   10.000000    ( 0.0000,  0.0000,  0.0000)
   7 Na     8.460000    8.973185   10.000000    ( 0.0000,  0.0000,  0.0000)
   8 Na    12.690000    8.973185   10.000000    ( 0.0000,  0.0000,  0.0000)
   9 Na     0.000000    0.000000   12.991062    ( 0.0000,  0.0000,  0.0000)
  10 Na     4.230000    0.000000   12.991062    ( 0.0000,  0.0000,  0.0000)
  11 Na     8.460000    0.000000   12.991062    ( 0.0000,  0.0000,  0.0000)
  12 Na     2.115000    2.991062   12.991062    ( 0.0000,  0.0000,  0.0000)
  13 Na     6.345000    2.991062   12.991062    ( 0.0000,  0.0000,  0.0000)
  14 Na    10.575000    2.991062   12.991062    ( 0.0000,  0.0000,  0.0000)
  15 Na     4.230000    5.982123   12.991062    ( 0.0000,  0.0000,  0.0000)
  16 Na     8.460000    5.982123   12.991062    ( 0.0000,  0.0000,  0.0000)
  17 Na    12.690000    5.982123   12.991062    ( 0.0000,  0.0000,  0.0000)
  18 Na     0.000000    2.991062   15.982123    ( 0.0000,  0.0000,  0.0000)
  19 Na     4.230000    2.991062   15.982123    ( 0.0000,  0.0000,  0.0000)
  20 Na     8.460000    2.991062   15.982123    ( 0.0000,  0.0000,  0.0000)
  21 Na     2.115000    5.982123   15.982123    ( 0.0000,  0.0000,  0.0000)
  22 Na     6.345000    5.982123   15.982123    ( 0.0000,  0.0000,  0.0000)
  23 Na    10.575000    5.982123   15.982123    ( 0.0000,  0.0000,  0.0000)
  24 Na     4.230000    8.973185   15.982123    ( 0.0000,  0.0000,  0.0000)
  25 Na     8.460000    8.973185   15.982123    ( 0.0000,  0.0000,  0.0000)
  26 Na    12.690000    8.973185   15.982123    ( 0.0000,  0.0000,  0.0000)
  27 Na     0.000000    0.000000   18.973185    ( 0.0000,  0.0000,  0.0000)
  28 Na     4.230000    0.000000   18.973185    ( 0.0000,  0.0000,  0.0000)
  29 Na     8.460000    0.000000   18.973185    ( 0.0000,  0.0000,  0.0000)
  30 Na     2.115000    2.991062   18.973185    ( 0.0000,  0.0000,  0.0000)
  31 Na     6.345000    2.991062   18.973185    ( 0.0000,  0.0000,  0.0000)
  32 Na    10.575000    2.991062   18.973185    ( 0.0000,  0.0000,  0.0000)
  33 Na     4.230000    5.982123   18.973185    ( 0.0000,  0.0000,  0.0000)
  34 Na     8.460000    5.982123   18.973185    ( 0.0000,  0.0000,  0.0000)
  35 Na    12.690000    5.982123   18.973185    ( 0.0000,  0.0000,  0.0000)

Unit cell:
           periodic     x           y           z      points  spacing
  1. axis:    yes   12.690000    0.000000    0.000000    64     0.1619
  2. axis:    yes    6.345000    8.973185    0.000000    64     0.1402
  3. axis:    no     0.000000    0.000000   28.973185   180     0.1610

  Lengths:  12.690000  10.989862  28.973185
  Angles:   90.000000  90.000000  54.735610

Effective grid spacing dv^(1/3) = 0.1648

     iter     time        total  log10-change:
                         energy  eigst   dens
iter:   1 01:04:36  -764.854107
iter:   2 01:17:31  -765.037312  -0.75  -1.52
iter:   3 01:30:19  -764.770792  -1.32  -1.56
iter:   4 01:43:09  -764.811641  -1.64  -1.68
Writing to output.gpw (mode='')

iter:   5 01:55:50  -764.831441c -2.03  -1.69
iter:   6 02:08:32  -765.055081  -1.87  -1.80
iter:   7 02:21:14  -765.097444  -1.83  -2.07
iter:   8 02:33:46  -765.108725c -2.59  -2.03
iter:   9 02:46:31  -764.999470c -2.74  -2.01
Writing to output.gpw (mode='')

iter:  10 02:59:28  -764.952408  -2.64  -2.21
iter:  11 03:12:17  -764.957981c -2.87  -2.77
iter:  12 03:24:57  -764.950679c -3.77  -2.70
iter:  13 03:37:20  -764.937835c -3.09  -2.80
iter:  14 03:49:57  -764.937766c -3.45  -3.09
Writing to output.gpw (mode='')

iter:  15 04:02:29  -764.937224c -3.89  -3.33
iter:  16 04:15:03  -764.937393c -4.29  -3.30
iter:  17 04:27:48  -764.937832c -3.48  -3.25
iter:  18 04:40:31  -764.938259c -3.15  -3.17
iter:  19 04:53:16  -764.937981c -3.72  -3.30
Writing to output.gpw (mode='')

iter:  20 05:06:10  -764.936548c -4.33  -3.17
iter:  21 05:18:58  -764.936636c -4.54  -3.34
iter:  22 05:31:42  -764.936550c -4.99  -3.39
iter:  23 05:44:30  -764.936410c -4.90  -3.46
iter:  24 05:57:15  -764.935992c -4.83  -3.46
Writing to output.gpw (mode='')

iter:  25 06:09:59  -764.936031c -5.31  -3.60
iter:  26 06:22:35  -764.936114c -4.96  -3.63
iter:  27 06:35:29  -764.936034c -5.10  -3.68
iter:  28 06:48:18  -764.936133c -5.08  -3.71
iter:  29 07:01:01  -764.936080c -5.05  -3.69
Writing to output.gpw (mode='')

iter:  30 07:14:01  -764.936013c -5.12  -4.07c
iter:  31 07:26:39  -764.936020c -5.59  -4.27c
iter:  32 07:39:28  -764.936014c -6.06  -4.23c
iter:  33 07:52:11  -764.936023c -6.03  -4.23c
iter:  34 08:04:49  -764.936026c -6.44  -4.21c
Writing to output.gpw (mode='')

iter:  35 08:17:35  -764.936024c -6.81  -4.18c
iter:  36 08:30:23  -764.936021c -6.01  -4.19c
iter:  37 08:43:08  -764.936024c -6.22  -4.21c
iter:  38 08:55:58  -764.936034c -6.22  -4.21c
iter:  39 09:08:54  -764.936028c -6.71  -4.24c
Writing to output.gpw (mode='')

iter:  40 09:21:48  -764.936018c -5.77  -4.25c
iter:  41 09:34:39  -764.936055c -5.27  -4.29c
iter:  42 09:47:45  -764.936292c -3.51  -4.32c
iter:  43 10:00:38  -764.936435c -3.72  -4.38c
iter:  44 10:13:37  -764.936095c -4.21  -4.40c
Writing to output.gpw (mode='')

iter:  45 10:26:26  -764.936283c -4.69  -4.47c
iter:  46 10:39:02  -764.936211c -5.70  -4.52c
iter:  47 10:51:40  -764.936018c -4.93  -4.54c
iter:  48 11:04:22  -764.936028c -5.26  -4.59c
iter:  49 11:17:12  -764.936024c -5.65  -4.62c
Writing to output.gpw (mode='')

iter:  50 11:29:56  -764.936041c -5.11  -4.64c
iter:  51 11:42:38  -764.936051c -4.48  -4.92c
iter:  52 11:55:22  -764.936061c -4.90  -4.99c
iter:  53 12:08:02  -764.936132c -4.76  -5.02c
iter:  54 12:20:41  -764.936126c -4.98  -5.14c
Writing to output.gpw (mode='')

iter:  55 12:33:25  -764.936150c -5.14  -5.14c
iter:  56 12:46:09  -764.936097c -4.64  -5.12c
iter:  57 12:58:54  -764.936192c -4.48  -5.20c
iter:  58 13:11:36  -764.936160c -4.86  -5.18c
iter:  59 13:24:22  -764.936316c -4.48  -5.17c
Writing to output.gpw (mode='')

iter:  60 13:37:21  -764.936353c -4.41  -5.10c
iter:  61 13:50:10  -764.936370c -4.55  -5.10c
iter:  62 14:02:49  -764.936757c -3.83  -5.09c
iter:  63 14:15:43  -764.936526c -4.39  -4.90c
iter:  64 14:28:18  -764.936460c -4.68  -5.00c
Writing to output.gpw (mode='')

iter:  65 14:41:03  -764.936620c -4.45  -5.01c
iter:  66 14:53:38  -764.935828c -3.97  -4.93c
iter:  67 15:06:22  -764.935896c -3.91  -4.99c
iter:  68 15:19:07  -764.935980c -4.20  -5.08c
iter:  69 15:31:53  -764.936062c -4.86  -5.17c
Writing to output.gpw (mode='')

iter:  70 15:44:47  -764.936152c -4.93  -5.20c
iter:  71 15:57:37  -764.936048c -4.53  -5.17c
iter:  72 16:10:32  -764.936075c -5.03  -5.27c
iter:  73 16:23:16  -764.936101c -5.43  -5.31c
iter:  74 16:36:01  -764.936082c -5.46  -5.35c
Writing to output.gpw (mode='')

iter:  75 16:48:50  -764.936115c -4.59  -5.39c
iter:  76 17:01:44  -764.936157c -4.45  -5.45c
iter:  77 17:14:45  -764.936076c -5.35  -5.44c
iter:  78 17:27:48  -764.936034c -5.28  -5.50c
iter:  79 17:40:42  -764.936039c -5.12  -5.52c
Writing to output.gpw (mode='')

iter:  80 17:53:24  -764.936157c -5.10  -5.58c
iter:  81 18:05:58  -764.936113c -5.12  -5.67c
iter:  82 18:19:03  -764.936099c -5.25  -5.72c
iter:  83 18:31:50  -764.936108c -5.69  -5.73c
iter:  84 18:44:39  -764.936082c -5.87  -5.75c
Writing to output.gpw (mode='')

iter:  85 18:57:26  -764.936072c -5.55  -5.73c
iter:  86 19:10:14  -764.936080c -6.06  -5.76c
iter:  87 19:21:45  -764.936088c -6.02  -5.77c
iter:  88 19:34:32  -764.936079c -6.63  -5.79c
iter:  89 19:47:30  -764.936069c -6.56  -5.77c
Writing to output.gpw (mode='')

iter:  90 20:00:18  -764.936055c -5.63  -5.78c
iter:  91 20:12:58  -764.936046c -5.65  -5.85c
iter:  92 20:25:36  -764.936072c -5.60  -5.90c
iter:  93 20:38:12  -764.936069c -6.69  -5.93c
iter:  94 20:50:55  -764.936060c -5.96  -5.94c
Writing to output.gpw (mode='')

iter:  95 21:03:30  -764.936058c -6.40  -5.96c
iter:  96 21:16:12  -764.936057c -6.27  -5.97c
iter:  97 21:28:51  -764.936057c -6.76  -5.96c
iter:  98 21:41:44  -764.936058c -6.67  -5.94c
iter:  99 21:54:41  -764.936063c -6.45  -5.94c
Writing to output.gpw (mode='')

iter: 100 22:07:37  -764.936056c -6.78  -5.92c
iter: 101 22:20:31  -764.936050c -5.77  -5.95c
iter: 102 22:33:20  -764.936057c -6.15  -5.96c
iter: 103 22:46:13  -764.936084c -5.88  -5.96c
iter: 104 22:59:09  -764.936062c -5.91  -5.87c
Writing to output.gpw (mode='')

iter: 105 23:11:57  -764.936067c -6.11  -5.96c
iter: 106 23:24:53  -764.936078c -6.13  -5.92c
iter: 107 23:37:45  -764.936056c -6.33  -5.91c
iter: 108 23:50:27  -764.936035c -5.93  -6.02c
iter: 109 00:03:08  -764.936031c -6.12  -6.10c
Writing to output.gpw (mode='')

iter: 110 00:15:47  -764.936032c -6.29  -6.11c
iter: 111 00:28:35  -764.936035c -6.39  -6.08c
iter: 112 00:41:18  -764.936032c -6.40  -6.05c
iter: 113 00:53:56  -764.936032c -6.86  -6.09c
iter: 114 01:06:39  -764.936032c -7.22  -6.07c
Writing to output.gpw (mode='')

iter: 115 01:19:16  -764.936034c -6.95  -6.06c
iter: 116 01:32:01  -764.936036c -6.84  -6.06c
iter: 117 01:44:39  -764.936035c -6.87  -6.06c
iter: 118 01:57:14  -764.936037c -7.09  -6.07c
iter: 119 02:09:50  -764.936034c -7.09  -6.07c
Writing to output.gpw (mode='')

iter: 120 02:22:39  -764.936049c -5.68  -6.10c
iter: 121 02:35:16  -764.936050c -6.17  -6.02c
iter: 122 02:48:00  -764.936046c -6.60  -6.05c
iter: 123 03:00:51  -764.936039c -6.74  -6.21c
iter: 124 03:13:46  -764.936033c -6.53  -6.35c
Writing to output.gpw (mode='')

iter: 125 03:26:28  -764.936031c -6.64  -6.43c
iter: 126 03:39:06  -764.936030c -6.65  -6.46c
iter: 127 03:51:55  -764.936030c -7.45c -6.50c

Converged after 127 iterations.

Dipole moment: (-10.017117, -7.121165, 0.000000) |e|*Ang

Energy contributions relative to reference atoms: (reference = -159069.977916)

Kinetic:       +197.665173
Potential:     -173.719173
External:        +0.000000
XC:            -787.564419
Entropy (-ST):   -0.156007
Local:           -1.239607
--------------------------
Free energy:   -765.014033
Extrapolated:  -764.936030

Dipole-layer corrected work functions: 3.056244, 3.056244 eV

Showing only first 2 kpts
 Kpt  Band  Eigenvalues  Occupancy
  0   124     -3.09419    1.36227
  0   125     -2.86324    0.04127
  0   126     -2.83487    0.02360
  0   127     -2.76025    0.00536

  1   124     -3.38420    1.99717
  1   125     -3.29380    1.98286
  1   126     -3.06512    1.08855
  1   127     -2.92543    0.13619


Fermi level: -3.05624

No gap
Writing to output.gpw (mode='')


Forces in eV/Ang:
  0 Na    0.00000    0.00104    0.01240
  1 Na    0.00160    0.00182    0.01265
  2 Na   -0.00160    0.00182    0.01265
  3 Na   -0.00160   -0.00182    0.01265
  4 Na    0.00000   -0.00104    0.01240
  5 Na    0.00160   -0.00182    0.01265
  6 Na    0.00305    0.00000    0.01567
  7 Na   -0.00305    0.00000    0.01567
  8 Na    0.00000    0.00000    0.01446
  9 Na    0.00000    0.00000   -0.00215
 10 Na    0.00384    0.00000   -0.00507
 11 Na   -0.00384    0.00000   -0.00507
 12 Na   -0.00339    0.00000   -0.00192
 13 Na    0.00000   -0.00119   -0.00119
 14 Na    0.00339    0.00000   -0.00192
 15 Na    0.00339   -0.00000   -0.00192
 16 Na   -0.00339   -0.00000   -0.00192
 17 Na    0.00000    0.00119   -0.00119
 18 Na    0.00000   -0.00119    0.00119
 19 Na    0.00339    0.00000    0.00192
 20 Na   -0.00339    0.00000    0.00192
 21 Na   -0.00339   -0.00000    0.00192
 22 Na    0.00000    0.00119    0.00119
 23 Na    0.00339   -0.00000    0.00192
 24 Na    0.00384    0.00000    0.00507
 25 Na   -0.00384    0.00000    0.00507
 26 Na    0.00000    0.00000    0.00215
 27 Na    0.00000    0.00000   -0.01446
 28 Na    0.00305    0.00000   -0.01567
 29 Na   -0.00305    0.00000   -0.01567
 30 Na   -0.00160    0.00182   -0.01265
 31 Na    0.00000    0.00104   -0.01240
 32 Na    0.00160    0.00182   -0.01265
 33 Na    0.00160   -0.00182   -0.01265
 34 Na   -0.00160   -0.00182   -0.01265
 35 Na    0.00000   -0.00104   -0.01240

Timing:                              incl.     excl.
-----------------------------------------------------------
Forces:                             50.023    50.023   0.1% |
Hamiltonian:                       132.591     0.000   0.0% |
 Atomic:                             0.296     0.001   0.0% |
  XC Correction:                     0.295     0.295   0.0% |
 Calculate atomic Hamiltonians:      0.435     0.435   0.0% |
 Communicate:                        0.847     0.847   0.0% |
 Hartree integrate/restrict:         0.269     0.269   0.0% |
 Initialize Hamiltonian:             0.000     0.000   0.0% |
 Poisson:                            3.328     0.337   0.0% |
  Communicate from 1D:               0.396     0.396   0.0% |
  Communicate from 2D:               0.536     0.536   0.0% |
  Communicate to 1D:                 0.137     0.137   0.0% |
  Communicate to 2D:                 0.819     0.819   0.0% |
  FFT 1D:                            0.448     0.448   0.0% |
  FFT 2D:                            0.654     0.654   0.0% |
 XC 3D grid:                       127.352    12.067   0.0% |
  VdW-DF integral:                 115.285     0.315   0.0% |
   Convolution:                      6.417     6.417   0.0% |
   FFT:                              0.792     0.792   0.0% |
   gather:                          80.368    80.368   0.1% |
   hmm1:                             1.131     1.131   0.0% |
   hmm2:                             1.134     1.134   0.0% |
   iFFT:                             1.471     1.471   0.0% |
   potential:                        9.698     0.114   0.0% |
    collect:                         0.699     0.699   0.0% |
    p1:                              4.138     4.138   0.0% |
    p2:                              2.693     2.693   0.0% |
    sum:                             2.054     2.054   0.0% |
   splines:                         13.958    13.958   0.0% |
 vbar:                               0.064     0.064   0.0% |
LCAO initialization:                48.354     0.085   0.0% |
 LCAO eigensolver:                   4.712     0.002   0.0% |
  Calculate projections:             0.000     0.000   0.0% |
  DenseAtomicCorrection:             0.000     0.000   0.0% |
  Distribute overlap matrix:         4.148     4.148   0.0% |
  Orbital Layouts:                   0.232     0.232   0.0% |
  Potential matrix:                  0.305     0.305   0.0% |
  Sum over cells:                    0.025     0.025   0.0% |
 LCAO to grid:                      41.999    41.999   0.0% |
 Set positions (LCAO WFS):           1.559     1.348   0.0% |
  Basic WFS set positions:           0.011     0.011   0.0% |
  Basis functions set positions:     0.000     0.000   0.0% |
  P tci:                             0.000     0.000   0.0% |
  ST tci:                            0.144     0.144   0.0% |
  mktci:                             0.055     0.055   0.0% |
SCF-cycle:                       97141.161   184.871   0.2% |
 Davidson:                       81582.731 22634.015  23.2% |--------|
  Apply hamiltonian:              4196.779  4196.779   4.3% |-|
  Subspace diag:                 10605.071     0.039   0.0% |
   calc_h_matrix:                 4055.948  2121.208   2.2% ||
    Apply hamiltonian:            1934.740  1934.740   2.0% ||
   diagonalize:                    134.693   134.693   0.1% |
   rotate_psi:                    6414.391  6414.391   6.6% |--|
  calc. matrices:                26765.209 21184.506  21.7% |--------|
   Apply hamiltonian:             5580.702  5580.702   5.7% |-|
  diagonalize:                     151.235   151.235   0.2% |
  rotate_psi:                    17230.422 17230.422  17.7% |------|
 Density:                          427.837     0.006   0.0% |
  Atomic density matrices:          68.186    68.186   0.1% |
  Mix:                              61.807    61.807   0.1% |
  Multipole moments:                 0.505     0.505   0.0% |
  Pseudo density:                  297.334   217.318   0.2% |
   Symmetrize density:              80.016    80.016   0.1% |
 Hamiltonian:                    14895.775     0.026   0.0% |
  Atomic:                           35.118     6.560   0.0% |
   XC Correction:                   28.558    28.558   0.0% |
  Calculate atomic Hamiltonians:    77.197    77.197   0.1% |
  Communicate:                      68.847    68.847   0.1% |
  Hartree integrate/restrict:       29.141    29.141   0.0% |
  Poisson:                         597.944   228.876   0.2% |
   Communicate from 1D:             54.714    54.714   0.1% |
   Communicate from 2D:             78.250    78.250   0.1% |
   Communicate to 1D:               20.777    20.777   0.0% |
   Communicate to 2D:               79.902    79.902   0.1% |
   FFT 1D:                          61.434    61.434   0.1% |
   FFT 2D:                          73.992    73.992   0.1% |
  XC 3D grid:                    14081.069  1590.925   1.6% ||
   VdW-DF integral:              12490.144    30.278   0.0% |
    Convolution:                   798.672   798.672   0.8% |
    FFT:                           157.344   157.344   0.2% |
    gather:                       9784.272  9784.272  10.0% |---|
    hmm1:                          162.538   162.538   0.2% |
    hmm2:                          218.786   218.786   0.2% |
    iFFT:                          169.959   169.959   0.2% |
    potential:                    1168.295    13.694   0.0% |
     collect:                      104.978   104.978   0.1% |
     p1:                           470.892   470.892   0.5% |
     p2:                           311.226   311.226   0.3% |
     sum:                          267.505   267.505   0.3% |
    splines:                         0.001     0.001   0.0% |
  vbar:                              6.433     6.433   0.0% |
 Orthonormalize:                    49.948     0.000   0.0% |
  calc_s_matrix:                     7.784     7.784   0.0% |
  inverse-cholesky:                  0.876     0.876   0.0% |
  projections:                      17.469    17.469   0.0% |
  rotate_psi_s:                     23.819    23.819   0.0% |
Set symmetry:                        0.007     0.007   0.0% |
Other:                              30.715    30.715   0.0% |
-----------------------------------------------------------
Total:                                     97402.851 100.0%

Memory usage: 3.21 GiB
Date: Fri Jan 20 03:52:48 2023
