
  ___ ___ ___ _ _ _  
 |   |   |_  | | | | 
 | | | | | . | | | | 
 |__ |  _|___|_____|  22.8.0
 |___|_|             

User:   vazumah@c09.hercules
Date:   Tue Jan 24 05:50:17 2023
Arch:   x86_64
Pid:    28202
CWD:    /home/vazumah/Python_projects/LiNRR/autocad_start/slab_experiments/free_slabs_big_vacuum/Ba/bcc111/substrate
Python: 3.10.8
gpaw:   /home/vazumah/.conda/envs/GPAW/lib/python3.10/site-packages/gpaw
_gpaw:  /home/vazumah/.conda/envs/GPAW/lib/python3.10/site-packages/
        _gpaw.cpython-310-x86_64-linux-gnu.so
ase:    /home/vazumah/.conda/envs/GPAW/lib/python3.10/site-packages/ase (version 3.22.1)
numpy:  /home/vazumah/.conda/envs/GPAW/lib/python3.10/site-packages/numpy (version 1.24.1)
scipy:  /home/vazumah/.conda/envs/GPAW/lib/python3.10/site-packages/scipy (version 1.10.0)
libxc:  5.2.3
units:  Angstrom and eV
cores: 24
OpenMP: True
OMP_NUM_THREADS: 1

Input parameters:
  eigensolver: {name: dav,
                niter: 3}
  h: 0.16
  kpts: {size: [2, 2, 1]}
  maxiter: 999
  mixer: {backend: pulay,
          beta: 0.02,
          method: separate,
          nmaxold: 5,
          weight: 100}
  occupations: {name: fermi-dirac,
                width: 0.05}
  poissonsolver: {dipolelayer: xy}
  xc: BEEF-vdW

System changes: positions, numbers, cell, pbc, initial_charges, initial_magmoms 

Initialize ...

species:
  Ba:
    name: Barium
    id: 3c0c69fceb001740075f2c7491402c79
    Z: 56.0
    valence: 10
    core: 46
    charge: 0.0
    file: /home/vazumah/.conda/envs/GPAW/share/gpaw/Ba.PBE.gz
    compensation charges: {type: gauss,
                           rc: 0.37,
                           lmax: 2}
    cutoffs: {filter: 2.06,
              core: 2.33}
    valence states:
      #              energy  rcut
      - 5s(2.00)   -33.644   1.164
      - 6s(2.00)    -3.229   1.164
      - 5p(6.00)   -18.744   1.164
      -  p           0.000   1.164
      -  d           0.000   1.164
      -  d          27.211   1.164
  
    # Using partial waves for Ba as LCAO basis

Reference energy: -7966002.330397  # eV

Spin-paired calculation

Convergence criteria:
 Maximum [total energy] change in last 3 cyles: 0.0005 eV / electron
 Maximum integral of absolute [dens]ity change: 0.0001 electrons / valence electron
 Maximum integral of absolute [eigenst]ate change: 4e-08 eV^2 / valence electron
 Maximum number of scf [iter]ations: 999
 (Square brackets indicate name in SCF output, whereas a 'c' in
 the SCF output indicates the quantity has converged.)

Symmetries present (total): 12

  ( 1  0  0)  ( 1  0  0)  ( 1 -1  0)  ( 1 -1  0)  ( 0  1  0)  ( 0  1  0)
  ( 1 -1  0)  ( 0  1  0)  ( 1  0  0)  ( 0 -1  0)  ( 1  0  0)  (-1  1  0)
  ( 0  0 -1)  ( 0  0  1)  ( 0  0 -1)  ( 0  0  1)  ( 0  0  1)  ( 0  0 -1)

  ( 0 -1  0)  ( 0 -1  0)  (-1  1  0)  (-1  1  0)  (-1  0  0)  (-1  0  0)
  ( 1 -1  0)  (-1  0  0)  ( 0  1  0)  (-1  0  0)  ( 0 -1  0)  (-1  1  0)
  ( 0  0  1)  ( 0  0 -1)  ( 0  0 -1)  ( 0  0  1)  ( 0  0 -1)  ( 0  0  1)
Note: your k-points are not as symmetric as your crystal!

4 k-points: 2 x 2 x 1 Monkhorst-Pack grid
2 k-points in the irreducible part of the Brillouin zone
       k-points in crystal coordinates                weights
   0:     0.25000000   -0.25000000    0.00000000          2/4
   1:     0.25000000    0.25000000    0.00000000          2/4

Wave functions: Uniform real-space grid
  Kinetic energy operator: 8*3+1=25 point O(h^6) finite-difference Laplacian
  ScaLapack parameters: grid=1x1, blocksize=None
  Wavefunction extrapolation:
    Improved wavefunction reuse through dual PAW basis 

Occupation numbers: Fermi-Dirac:
  width: 0.0500  # eV
 

Eigensolver
   Davidson(niter=3) 

Densities:
  Coarse grid: 116*116*152 grid
  Fine grid: 232*232*304 grid
  Total Charge: 0.000000 

Density mixing:
  Method: separate
  Backend: pulay
  Linear mixing parameter: 0.02
  old densities: 5
  Damping of long wavelength oscillations: 100 

Hamiltonian:
  XC and Coulomb potentials evaluated on a 232*232*304 grid
  Using the BEEF-vdW Exchange-Correlation functional
  Interpolation: tri-quintic (5. degree polynomial)
  Poisson solver: FastPoissonSolver using
    Stencil: 8*3+1=25 point O(h^6) finite-difference Laplacian
    FFT axes: [0, 1]
    FST axes: [2]

Dipole correction along z-axis 

XC parameters: BEEF-vdW with 2 nearest neighbor stencil

Memory estimate:
  Process memory now: 215.55 MiB
  Calculator: 1033.93 MiB
    Density: 65.40 MiB
      Arrays: 33.67 MiB
      Localized functions: 18.89 MiB
      Mixer: 12.83 MiB
    Hamiltonian: 23.45 MiB
      Arrays: 22.02 MiB
      XC: 0.00 MiB
      Poisson: 0.00 MiB
      vbar: 1.43 MiB
    Wavefunctions: 945.09 MiB
      Arrays psit_nG: 461.98 MiB
      Eigensolver: 479.76 MiB
      Projections: 0.15 MiB
      Projectors: 3.21 MiB

Total number of cores used: 24
Parallelization over k-points: 2
Domain decomposition: 2 x 2 x 3

Number of atoms: 36
Number of atomic orbitals: 180
Number of bands in calculation: 180
Number of valence electrons: 360
Bands to converge: occupied

... initialized

Initializing position-dependent things.

Density initialized from atomic densities
Creating initial wave functions:
  180 bands from LCAO basis set

                                                                                        
                                                                                        
                                                                                        
                                                                                        
                                                                                        
                                   Ba                Ba               Ba                
                                 Ba               Ba               Ba                   
                                                                                        
                                           Ba               Ba               Ba         
                      Ba                Ba               Ba                             
                    Ba               Ba                Ba                               
                                 Ba               Ba               Ba                   
                              Ba               Ba                Ba                     
          Ba               Ba                Ba                                         
       Ba                Ba               Ba                                            
                    Ba               Ba                Ba                               
                 Ba                Ba               Ba                                  
                                                                                        
                                                                                        
       Ba                Ba               Ba                                            
                                                                                        
                                                                                        
                                                                                        
                                                                                        

Positions:
   0 Ba     0.000000    0.000000   10.000000    ( 0.0000,  0.0000,  0.0000)
   1 Ba     7.099352    0.000000   10.000000    ( 0.0000,  0.0000,  0.0000)
   2 Ba    14.198704    0.000000   10.000000    ( 0.0000,  0.0000,  0.0000)
   3 Ba     3.549676    6.148219   10.000000    ( 0.0000,  0.0000,  0.0000)
   4 Ba    10.649028    6.148219   10.000000    ( 0.0000,  0.0000,  0.0000)
   5 Ba    17.748380    6.148219   10.000000    ( 0.0000,  0.0000,  0.0000)
   6 Ba     7.099352   12.296439   10.000000    ( 0.0000,  0.0000,  0.0000)
   7 Ba    14.198704   12.296439   10.000000    ( 0.0000,  0.0000,  0.0000)
   8 Ba    21.298056   12.296439   10.000000    ( 0.0000,  0.0000,  0.0000)
   9 Ba     3.549676    2.049406   11.449149    ( 0.0000,  0.0000,  0.0000)
  10 Ba    10.649028    2.049406   11.449149    ( 0.0000,  0.0000,  0.0000)
  11 Ba    17.748380    2.049406   11.449149    ( 0.0000,  0.0000,  0.0000)
  12 Ba     7.099352    8.197626   11.449149    ( 0.0000,  0.0000,  0.0000)
  13 Ba    14.198704    8.197626   11.449149    ( 0.0000,  0.0000,  0.0000)
  14 Ba    21.298056    8.197626   11.449149    ( 0.0000,  0.0000,  0.0000)
  15 Ba    10.649028   14.345845   11.449149    ( 0.0000,  0.0000,  0.0000)
  16 Ba    17.748380   14.345845   11.449149    ( 0.0000,  0.0000,  0.0000)
  17 Ba    24.847732   14.345845   11.449149    ( 0.0000,  0.0000,  0.0000)
  18 Ba     0.000000    4.098813   12.898298    ( 0.0000,  0.0000,  0.0000)
  19 Ba     7.099352    4.098813   12.898298    ( 0.0000,  0.0000,  0.0000)
  20 Ba    14.198704    4.098813   12.898298    ( 0.0000,  0.0000,  0.0000)
  21 Ba     3.549676   10.247032   12.898298    ( 0.0000,  0.0000,  0.0000)
  22 Ba    10.649028   10.247032   12.898298    ( 0.0000,  0.0000,  0.0000)
  23 Ba    17.748380   10.247032   12.898298    ( 0.0000,  0.0000,  0.0000)
  24 Ba     7.099352   16.395251   12.898298    ( 0.0000,  0.0000,  0.0000)
  25 Ba    14.198704   16.395251   12.898298    ( 0.0000,  0.0000,  0.0000)
  26 Ba    21.298056   16.395251   12.898298    ( 0.0000,  0.0000,  0.0000)
  27 Ba     0.000000    0.000000   14.347448    ( 0.0000,  0.0000,  0.0000)
  28 Ba     7.099352    0.000000   14.347448    ( 0.0000,  0.0000,  0.0000)
  29 Ba    14.198704    0.000000   14.347448    ( 0.0000,  0.0000,  0.0000)
  30 Ba     3.549676    6.148219   14.347448    ( 0.0000,  0.0000,  0.0000)
  31 Ba    10.649028    6.148219   14.347448    ( 0.0000,  0.0000,  0.0000)
  32 Ba    17.748380    6.148219   14.347448    ( 0.0000,  0.0000,  0.0000)
  33 Ba     7.099352   12.296439   14.347448    ( 0.0000,  0.0000,  0.0000)
  34 Ba    14.198704   12.296439   14.347448    ( 0.0000,  0.0000,  0.0000)
  35 Ba    21.298056   12.296439   14.347448    ( 0.0000,  0.0000,  0.0000)

Unit cell:
           periodic     x           y           z      points  spacing
  1. axis:    yes   21.298056    0.000000    0.000000   116     0.1590
  2. axis:    yes   10.649028   18.444658    0.000000   116     0.1590
  3. axis:    no     0.000000    0.000000   24.347448   152     0.1602

  Lengths:  21.298056  21.298056  24.347448
  Angles:   90.000000  90.000000  60.000000

Effective grid spacing dv^(1/3) = 0.1672

     iter     time        total  log10-change:
                         energy  eigst   dens
iter:   1 06:08:24 -6768.255248
iter:   2 06:24:39 -6778.593329  +0.62  -1.19
iter:   3 06:41:01 -6786.834714  +0.31  -1.18
iter:   4 06:57:05 -6781.175137  +0.03  -1.10
Writing to output.gpw (mode='')

iter:   5 07:12:26 -6783.267635  +0.02  -1.55
iter:   6 07:28:41 -6784.680009  -0.41  -1.55
iter:   7 07:44:57 -6785.699936  -0.35  -1.50
iter:   8 08:00:55 -6786.233948  -0.63  -1.49
iter:   9 08:17:16 -6786.955395  -0.79  -1.48
Writing to output.gpw (mode='')

iter:  10 08:33:29 -6793.169722  -0.77  -1.44
iter:  11 08:49:34 -6786.509287  -0.65  -1.18
iter:  12 09:05:57 -6790.592302  -1.06  -1.40
iter:  13 09:22:09 -6791.800369  -1.11  -1.25
iter:  14 09:38:49 -6787.280937  -1.15  -1.21
Writing to output.gpw (mode='')

iter:  15 09:55:25 -6787.586819  -0.70  -1.45
iter:  16 10:11:23 -6787.923070  -0.35  -1.81
iter:  17 10:27:44 -6788.142684  -1.11  -1.82
iter:  18 10:43:43 -6788.491445  -1.02  -1.75
iter:  19 11:00:01 -6788.518429  -1.18  -1.67
Writing to output.gpw (mode='')

iter:  20 11:15:39 -6788.544835c -1.42  -1.64
iter:  21 11:31:35 -6788.989406  -1.47  -1.62
iter:  22 11:47:02 -6789.096779  -1.39  -1.57
iter:  23 12:02:33 -6788.620194  -1.76  -1.54
iter:  24 12:18:54 -6787.707494  -1.59  -1.56
Writing to output.gpw (mode='')

iter:  25 12:35:02 -6788.667788  -1.61  -1.68
iter:  26 12:50:35 -6787.405483  -1.36  -1.60
iter:  27 13:05:21 -6787.587327  -1.29  -1.88
iter:  28 13:21:28 -6787.651846  -1.65  -1.96
iter:  29 13:37:34 -6787.722826c -1.55  -2.15
Writing to output.gpw (mode='')

iter:  30 13:52:05 -6787.767965c -2.18  -2.14
iter:  31 14:07:32 -6787.772405c -1.78  -2.12
iter:  32 14:23:44 -6787.832328c -2.11  -2.14
iter:  33 14:40:13 -6787.874464c -1.78  -2.09
iter:  34 14:56:21 -6787.963259c -1.68  -2.16
Writing to output.gpw (mode='')

iter:  35 15:12:27 -6787.893596c -1.93  -2.10
iter:  36 15:26:01 -6788.178025  -1.90  -2.13
iter:  37 15:41:17 -6788.102791  -1.82  -1.92
iter:  38 15:57:34 -6788.260109c -2.10  -1.93
iter:  39 16:12:17 -6788.021818  -1.86  -1.87
Writing to output.gpw (mode='')

iter:  40 16:23:58 -6788.182585  -2.17  -1.97
iter:  41 16:38:52 -6788.154790c -2.05  -1.91
iter:  42 16:52:30 -6788.067317c -1.71  -1.93
iter:  43 17:08:23 -6788.084101c -1.88  -2.10
iter:  44 17:24:16 -6788.163401c -2.04  -2.14
Writing to output.gpw (mode='')

iter:  45 17:40:09 -6788.241247c -1.85  -2.11
iter:  46 17:55:19 -6788.203380c -2.20  -2.04
iter:  47 18:10:38 -6788.281932c -2.16  -2.06
iter:  48 18:24:52 -6788.358890c -2.08  -2.00
iter:  49 18:40:45 -6788.255207c -2.12  -1.98
Writing to output.gpw (mode='')

iter:  50 18:56:41 -6788.329267c -2.21  -2.03
iter:  51 19:12:34 -6788.244986c -2.01  -1.99
iter:  52 19:28:47 -6788.261243c -1.88  -2.16
iter:  53 19:44:53 -6788.275243c -2.02  -2.19
iter:  54 20:00:31 -6788.371190c -2.11  -2.20
Writing to output.gpw (mode='')

iter:  55 20:16:54 -6788.395348c -1.88  -2.14
iter:  56 20:32:34 -6788.470349c -2.26  -2.11
iter:  57 20:48:32 -6788.468034c -1.90  -2.03
iter:  58 21:04:45 -6788.478100c -2.30  -2.02
iter:  59 21:20:06 -6788.505200c -2.15  -2.02
Writing to output.gpw (mode='')

iter:  60 21:36:28 -6788.348675c -2.15  -2.00
iter:  61 21:52:34 -6788.355735c -2.05  -2.18
iter:  62 22:08:57 -6788.372964c -2.18  -2.22
iter:  63 22:24:44 -6788.382057c -2.18  -2.24
iter:  64 22:40:43 -6788.399158c -2.13  -2.24
Writing to output.gpw (mode='')

iter:  65 22:56:57 -6788.419862c -2.14  -2.26
iter:  66 23:12:41 -6788.431347c -2.22  -2.27
iter:  67 23:28:52 -6788.445025c -2.24  -2.29
iter:  68 23:44:46 -6788.456894c -2.19  -2.29
iter:  69 00:00:42 -6788.465282c -2.24  -2.30
Writing to output.gpw (mode='')

iter:  70 00:16:27 -6788.472654c -2.27  -2.34
iter:  71 00:32:18 -6788.484017c -2.34  -2.57
iter:  72 00:48:49 -6788.492909c -2.27  -2.56
iter:  73 01:04:52 -6788.522585c -2.42  -2.53
iter:  74 01:20:55 -6788.537459c -2.21  -2.50
Writing to output.gpw (mode='')

iter:  75 01:36:51 -6788.556725c -2.31  -2.46
iter:  76 01:53:11 -6788.550645c -2.33  -2.41
iter:  77 02:09:36 -6788.552483c -2.22  -2.48
iter:  78 02:25:23 -6788.590144c -2.35  -2.52
iter:  79 02:41:16 -6788.578870c -2.23  -2.39
Writing to output.gpw (mode='')

iter:  80 02:57:34 -6788.583172c -2.27  -2.49
iter:  81 03:12:55 -6788.594113c -2.36  -2.73
iter:  82 03:29:18 -6788.614644c -2.31  -2.72
iter:  83 03:45:32 -6788.624805c -2.33  -2.64
iter:  84 04:00:42 -6788.630937c -2.33  -2.64
Writing to output.gpw (mode='')

iter:  85 04:16:19 -6788.643830c -2.48  -2.69
iter:  86 04:28:57 -6788.659281c -2.33  -2.68
iter:  87 04:42:43 -6788.669788c -2.24  -2.69
iter:  88 04:55:31 -6788.679011c -2.47  -2.70
iter:  89 05:06:38 -6788.689648c -2.39  -2.70
Writing to output.gpw (mode='')

iter:  90 05:17:26 -6788.701833c -2.53  -2.69
iter:  91 05:33:34 -6788.710667c -2.55  -2.67
iter:  92 05:49:50 -6788.717390c -2.41  -2.67
iter:  93 06:05:09 -6788.725442c -2.70  -2.67
iter:  94 06:20:34 -6788.728469c -2.47  -2.61
Writing to output.gpw (mode='')

iter:  95 06:37:10 -6788.744644c -2.53  -2.77
iter:  96 06:48:21 -6788.752283c -2.43  -2.76
iter:  97 06:55:27 -6788.763400c -2.41  -2.72
iter:  98 07:02:32 -6788.771360c -2.63  -2.63
iter:  99 07:11:48 -6788.771623c -2.62  -2.61
Writing to output.gpw (mode='')

iter: 100 07:28:05 -6788.774134c -2.73  -2.62
iter: 101 07:44:04 -6788.777378c -2.64  -2.62
iter: 102 07:59:23 -6788.783145c -2.60  -2.63
iter: 103 08:15:05 -6788.788876c -2.82  -2.62
iter: 104 08:31:54 -6788.790167c -2.75  -2.62
Writing to output.gpw (mode='')

iter: 105 08:48:07 -6788.786930c -2.82  -2.64
iter: 106 09:03:33 -6788.790536c -2.75  -2.78
iter: 107 09:17:12 -6788.793900c -2.84  -2.82
iter: 108 09:33:11 -6788.798986c -2.75  -2.84
iter: 109 09:48:34 -6788.802504c -2.91  -2.83
Writing to output.gpw (mode='')

iter: 110 10:04:24 -6788.805614c -2.83  -2.84
iter: 111 10:20:41 -6788.807996c -2.90  -2.85
iter: 112 10:36:54 -6788.811195c -2.94  -2.88
iter: 113 10:53:11 -6788.814649c -2.85  -2.89
iter: 114 11:09:32 -6788.817659c -2.90  -2.99
Writing to output.gpw (mode='')

iter: 115 11:24:24 -6788.820693c -3.02  -3.06
iter: 116 11:40:21 -6788.823964c -2.92  -3.08
iter: 117 11:56:18 -6788.827680c -3.06  -3.09
iter: 118 12:12:40 -6788.829496c -2.99  -3.06
iter: 119 12:27:38 -6788.831397c -3.08  -3.07
Writing to output.gpw (mode='')

iter: 120 12:43:32 -6788.834959c -3.15  -3.13
iter: 121 12:59:36 -6788.837756c -2.93  -3.28
iter: 122 13:12:09 -6788.839444c -3.36  -3.16
iter: 123 13:28:31 -6788.840674c -2.98  -3.12
iter: 124 13:45:16 -6788.842053c -3.39  -3.17
Writing to output.gpw (mode='')

iter: 125 14:01:31 -6788.844048c -3.09  -3.16
iter: 126 14:17:16 -6788.845931c -3.26  -3.13
iter: 127 14:32:42 -6788.847992c -3.25  -3.07
iter: 128 14:48:47 -6788.849480c -3.20  -3.02
iter: 129 15:05:07 -6788.848707c -3.40  -2.98
Writing to output.gpw (mode='')

iter: 130 15:20:29 -6788.849828c -3.17  -3.04
iter: 131 15:33:49 -6788.852391c -3.55  -3.07
iter: 132 15:49:35 -6788.861365c -3.02  -3.03
iter: 133 16:01:05 -6788.852534c -3.15  -2.78
iter: 134 16:14:28 -6788.853465c -3.12  -2.99
Writing to output.gpw (mode='')

iter: 135 16:30:34 -6788.855428c -3.17  -3.08
iter: 136 16:46:50 -6788.857673c -3.02  -3.27
iter: 137 17:02:50 -6788.858490c -3.29  -3.28
iter: 138 17:19:07 -6788.858984c -3.50  -3.32
iter: 139 17:35:05 -6788.859583c -3.55  -3.38
Writing to output.gpw (mode='')

iter: 140 17:50:33 -6788.860097c -3.66  -3.38
iter: 141 18:04:11 -6788.860658c -3.68  -3.38
iter: 142 18:20:37 -6788.861319c -3.62  -3.42
iter: 143 18:36:00 -6788.862078c -3.53  -3.46
iter: 144 18:51:44 -6788.862861c -3.80  -3.51
Writing to output.gpw (mode='')

iter: 145 19:07:50 -6788.863715c -3.51  -3.58
iter: 146 19:22:58 -6788.864402c -3.80  -3.65
iter: 147 19:39:09 -6788.866078c -3.35  -3.64
iter: 148 19:52:01 -6788.866686c -3.76  -3.46
iter: 149 20:08:35 -6788.867504c -3.50  -3.45
Writing to output.gpw (mode='')

iter: 150 20:23:36 -6788.868035c -3.66  -3.56
iter: 151 20:35:34 -6788.869179c -3.46  -3.55
iter: 152 20:50:54 -6788.870108c -3.61  -3.58
iter: 153 21:02:39 -6788.871345c -3.45  -3.59
iter: 154 21:12:12 -6788.872185c -3.69  -3.50
Writing to output.gpw (mode='')

iter: 155 21:27:54 -6788.873026c -3.41  -3.48
iter: 156 21:38:34 -6788.873996c -3.53  -3.46
iter: 157 21:53:07 -6788.875790c -3.44  -3.43
iter: 158 22:04:32 -6788.877395c -3.45  -3.41
iter: 159 22:20:44 -6788.878733c -3.37  -3.34
Writing to output.gpw (mode='')

iter: 160 22:32:39 -6788.881854c -3.10  -3.36
iter: 161 22:45:23 -6788.883523c -3.46  -3.33
iter: 162 23:01:51 -6788.887074c -3.22  -3.31
iter: 163 23:17:50 -6788.888583c -3.40  -3.21
iter: 164 23:34:27 -6788.894928c -3.07  -3.18
Writing to output.gpw (mode='')

iter: 165 23:48:19 -6788.896423c -3.18  -3.00
iter: 166 00:01:01 -6788.897384c -3.09  -2.98
iter: 167 00:14:51 -6788.903377c -3.19  -3.06
iter: 168 00:29:42 -6788.906791c -2.98  -2.99
iter: 169 00:46:11 -6788.918022c -2.72  -3.04
Writing to output.gpw (mode='')

iter: 170 00:55:29 -6788.916907c -3.08  -2.89
iter: 171 01:10:11 -6788.926814c -3.15  -2.94
iter: 172 01:22:46 -6788.924096c -2.93  -2.76
iter: 173 01:29:52 -6788.936536c -3.04  -2.84
iter: 174 01:42:53 -6788.935804c -3.20  -2.75
Writing to output.gpw (mode='')

iter: 175 01:58:24 -6788.944980c -2.50  -2.77
iter: 176 02:13:20 -6788.953690c -2.71  -2.84
iter: 177 02:29:31 -6788.981278c -2.60  -2.77
iter: 178 02:44:58 -6788.951588c -2.78  -2.55
iter: 179 03:01:01 -6788.952737c -2.94  -2.68
Writing to output.gpw (mode='')

iter: 180 03:16:37 -6788.953264c -3.05  -2.71
iter: 181 03:33:14 -6788.955034c -2.81  -2.75
iter: 182 03:47:37 -6789.006215c -2.54  -2.78
iter: 183 04:02:49 -6788.973659c -2.70  -2.48
iter: 184 04:19:00 -6788.980497c -2.92  -2.59
Writing to output.gpw (mode='')

iter: 185 04:34:01 -6788.962566c -2.68  -2.57
iter: 186 04:50:35 -6788.970103c -2.76  -2.82
iter: 187 05:06:54 -6788.979800c -2.80  -2.83
iter: 188 05:23:14 -6788.980417c -3.00  -2.81
iter: 189 05:39:50 -6788.983670c -2.91  -2.83
Writing to output.gpw (mode='')

iter: 190 05:56:14 -6788.986539c -3.11  -2.89
iter: 191 06:12:22 -6788.992793c -2.98  -2.90
iter: 192 06:28:48 -6788.994838c -2.99  -2.87
iter: 193 06:45:30 -6789.009786c -2.58  -2.93
iter: 194 07:01:48 -6789.013147c -2.78  -2.83
Writing to output.gpw (mode='')

iter: 195 07:18:34 -6789.009975c -2.75  -2.80
iter: 196 07:35:22 -6789.019235c -2.94  -2.81
iter: 197 07:51:41 -6789.023202c -2.78  -2.77
iter: 198 08:07:53 -6789.027053c -2.80  -2.75
iter: 199 08:24:17 -6789.025636c -2.77  -2.73
Writing to output.gpw (mode='')

iter: 200 08:40:44 -6789.029732c -2.61  -2.83
iter: 201 08:57:26 -6789.037531c -2.75  -2.86
iter: 202 09:13:50 -6789.049683c -2.66  -2.85
iter: 203 09:30:23 -6789.060110c -2.48  -2.87
iter: 204 09:47:05 -6789.057257c -2.82  -2.79
Writing to output.gpw (mode='')

iter: 205 10:03:46 -6789.065041c -2.55  -2.87
iter: 206 10:20:07 -6789.071583c -2.78  -3.04
iter: 207 10:36:42 -6789.082954c -2.48  -3.10
iter: 208 10:53:04 -6789.089342c -2.83  -3.09
iter: 209 11:09:24 -6789.096822c -2.49  -3.14
Writing to output.gpw (mode='')

iter: 210 11:25:17 -6789.104256c -2.71  -3.17
iter: 211 11:41:50 -6789.115075c -2.61  -3.22
iter: 212 11:58:19 -6789.120410c -2.66  -3.27
iter: 213 12:14:43 -6789.127839c -2.62  -3.26
iter: 214 12:31:23 -6789.134794c -2.59  -3.22
Writing to output.gpw (mode='')

iter: 215 12:47:51 -6789.143675c -2.64  -3.21
iter: 216 13:04:10 -6789.151233c -2.62  -3.10
iter: 217 13:20:40 -6789.157234c -2.69  -3.05
iter: 218 13:36:55 -6789.165674c -2.69  -3.06
iter: 219 13:53:08 -6789.171970c -2.69  -3.03
Writing to output.gpw (mode='')

iter: 220 14:09:29 -6789.178108c -2.63  -3.00
iter: 221 14:25:39 -6789.182275c -2.78  -3.01
iter: 222 14:41:47 -6789.186616c -2.82  -3.01
iter: 223 14:58:05 -6789.191662c -2.78  -3.03
iter: 224 15:14:33 -6789.196853c -2.90  -3.06
Writing to output.gpw (mode='')

iter: 225 15:31:13 -6789.201882c -2.73  -3.07
iter: 226 15:47:56 -6789.206759c -2.78  -3.12
iter: 227 16:04:33 -6789.210447c -2.98  -3.28
iter: 228 16:20:52 -6789.213259c -2.90  -3.39
iter: 229 16:37:43 -6789.216552c -3.02  -3.39
Writing to output.gpw (mode='')

iter: 230 16:54:09 -6789.219364c -3.11  -3.45
iter: 231 17:10:40 -6789.222031c -3.06  -3.45
iter: 232 17:27:15 -6789.224365c -2.94  -3.44
iter: 233 17:43:22 -6789.226954c -3.14  -3.44
iter: 234 17:59:54 -6789.229296c -3.02  -3.47
Writing to output.gpw (mode='')

iter: 235 18:16:20 -6789.231098c -3.27  -3.49
iter: 236 18:32:37 -6789.232881c -3.11  -3.49
iter: 237 18:48:57 -6789.237549c -3.08  -3.48
iter: 238 19:05:02 -6789.239188c -3.29  -3.32
iter: 239 19:21:17 -6789.240776c -3.15  -3.36
Writing to output.gpw (mode='')

iter: 240 19:37:31 -6789.242953c -3.30  -3.49
iter: 241 19:54:08 -6789.243920c -3.38  -3.48
iter: 242 20:10:23 -6789.244779c -3.46  -3.43
iter: 243 20:26:31 -6789.246698c -3.35  -3.44
iter: 244 20:42:50 -6789.247468c -3.57  -3.28
Writing to output.gpw (mode='')

iter: 245 20:59:09 -6789.249370c -3.48  -3.27
iter: 246 21:15:36 -6789.249359c -3.50  -3.18
iter: 247 21:32:07 -6789.250261c -3.73  -3.26
iter: 248 21:49:00 -6789.251322c -3.62  -3.24
iter: 249 22:05:25 -6789.251241c -3.81  -3.15
Writing to output.gpw (mode='')

iter: 250 22:21:31 -6789.253178c -3.43  -3.25
iter: 251 22:37:39 -6789.252910c -3.79  -3.24
iter: 252 22:54:03 -6789.253479c -3.80  -3.27
iter: 253 23:10:14 -6789.253705c -3.89  -3.23
iter: 254 23:26:31 -6789.253636c -4.01  -3.21
Writing to output.gpw (mode='')

iter: 255 23:43:17 -6789.253369c -3.88  -3.22
iter: 256 23:59:49 -6789.253773c -4.19  -3.30
iter: 257 00:16:27 -6789.254292c -3.77  -3.30
iter: 258 00:33:12 -6789.254239c -4.03  -3.30
iter: 259 00:49:46 -6789.254643c -3.99  -3.36
Writing to output.gpw (mode='')

iter: 260 01:05:52 -6789.255020c -3.85  -3.39
iter: 261 01:22:08 -6789.254808c -4.12  -3.40
iter: 262 01:39:03 -6789.254775c -4.03  -3.43
iter: 263 01:55:12 -6789.254997c -4.24  -3.56
iter: 264 02:11:29 -6789.255117c -4.33  -3.68
Writing to output.gpw (mode='')

iter: 265 02:27:38 -6789.255175c -4.43  -3.65
iter: 266 02:43:57 -6789.255201c -4.54  -3.64
iter: 267 03:00:34 -6789.255272c -4.47  -3.68
iter: 268 03:16:40 -6789.255378c -4.72  -3.69
iter: 269 03:32:58 -6789.255522c -4.40  -3.67
Writing to output.gpw (mode='')

iter: 270 03:49:31 -6789.255588c -4.51  -3.70
iter: 271 04:05:59 -6789.255710c -4.64  -3.70
iter: 272 04:22:39 -6789.255746c -4.52  -3.64
iter: 273 04:39:17 -6789.255694c -4.88  -3.61
iter: 274 04:55:31 -6789.255709c -4.72  -3.68
Writing to output.gpw (mode='')

iter: 275 05:11:36 -6789.255744c -4.84  -3.75
iter: 276 05:28:00 -6789.255778c -4.87  -3.77
iter: 277 05:44:30 -6789.255992c -4.64  -3.79
iter: 278 06:00:47 -6789.255930c -4.88  -3.69
iter: 279 06:16:51 -6789.255920c -5.02  -3.74
Writing to output.gpw (mode='')

iter: 280 06:33:28 -6789.255881c -4.97  -3.76
iter: 281 06:49:40 -6789.255909c -4.84  -3.91
iter: 282 07:06:07 -6789.255934c -5.19  -3.94
iter: 283 07:22:41 -6789.255946c -5.26  -3.97
iter: 284 07:39:25 -6789.255986c -5.14  -3.97
Writing to output.gpw (mode='')

iter: 285 07:55:59 -6789.255985c -5.38  -3.95
iter: 286 08:12:29 -6789.255998c -5.23  -3.98
iter: 287 08:29:06 -6789.256019c -5.47  -4.01c
iter: 288 08:45:31 -6789.256026c -5.49  -4.00c
iter: 289 09:02:05 -6789.256037c -5.40  -4.18c
Writing to output.gpw (mode='')

iter: 290 09:18:23 -6789.256045c -5.57  -4.57c
iter: 291 09:34:46 -6789.256052c -5.54  -4.54c
iter: 292 09:51:11 -6789.256059c -5.61  -4.46c
iter: 293 10:07:41 -6789.256064c -5.62  -4.46c
iter: 294 10:23:53 -6789.256070c -5.67  -4.49c
Writing to output.gpw (mode='')

iter: 295 10:40:47 -6789.256074c -5.74  -4.59c
iter: 296 10:56:53 -6789.256083c -5.69  -4.58c
iter: 297 11:13:15 -6789.256086c -5.85  -4.51c
iter: 298 11:29:59 -6789.256091c -5.69  -4.52c
iter: 299 11:46:21 -6789.256094c -5.96  -4.62c
Writing to output.gpw (mode='')

iter: 300 12:02:48 -6789.256098c -5.86  -4.64c
iter: 301 12:19:24 -6789.256102c -5.90  -4.70c
iter: 302 12:35:54 -6789.256105c -6.06  -4.84c
iter: 303 12:52:44 -6789.256108c -5.90  -4.85c
iter: 304 13:09:20 -6789.256111c -6.02  -4.76c
Writing to output.gpw (mode='')

iter: 305 13:26:11 -6789.256113c -6.04  -4.66c
iter: 306 13:42:26 -6789.256115c -6.06  -4.62c
iter: 307 13:59:20 -6789.256116c -6.27  -4.59c
iter: 308 14:15:47 -6789.256121c -6.16  -4.61c
iter: 309 14:32:10 -6789.256124c -6.09  -4.50c
Writing to output.gpw (mode='')

iter: 310 14:49:01 -6789.256124c -6.35  -4.47c
iter: 311 15:05:28 -6789.256125c -6.20  -4.49c
iter: 312 15:21:56 -6789.256125c -6.26  -4.52c
iter: 313 15:38:30 -6789.256127c -6.39  -4.56c
iter: 314 15:55:24 -6789.256128c -6.35  -4.57c
Writing to output.gpw (mode='')

iter: 315 16:11:53 -6789.256131c -6.12  -4.56c
iter: 316 16:28:27 -6789.256131c -6.26  -4.64c
iter: 317 16:45:10 -6789.256132c -6.42  -4.75c
iter: 318 17:01:57 -6789.256133c -6.44  -4.84c
iter: 319 17:18:18 -6789.256134c -6.53  -4.86c
Writing to output.gpw (mode='')

iter: 320 17:34:48 -6789.256135c -6.52  -4.88c
iter: 321 17:51:12 -6789.256136c -6.43  -4.95c
iter: 322 18:07:32 -6789.256137c -6.62  -4.98c
iter: 323 18:24:15 -6789.256138c -6.67  -5.01c
iter: 324 18:40:55 -6789.256139c -6.46  -4.92c
Writing to output.gpw (mode='')

iter: 325 18:57:38 -6789.256140c -6.59  -4.98c
iter: 326 19:14:29 -6789.256140c -6.74  -4.96c
iter: 327 19:31:24 -6789.256141c -6.62  -4.94c
iter: 328 19:47:58 -6789.256142c -6.60  -4.92c
iter: 329 20:04:25 -6789.256144c -6.43  -4.77c
Writing to output.gpw (mode='')

iter: 330 20:20:41 -6789.256144c -6.62  -4.62c
iter: 331 20:37:26 -6789.256146c -6.68  -4.60c
iter: 332 20:54:29 -6789.256144c -6.61  -4.52c
iter: 333 21:11:07 -6789.256144c -6.78  -4.64c
iter: 334 21:27:34 -6789.256145c -6.73  -4.68c
Writing to output.gpw (mode='')

iter: 335 21:44:14 -6789.256146c -6.51  -4.68c
iter: 336 22:00:33 -6789.256146c -6.62  -4.74c
iter: 337 22:16:52 -6789.256146c -6.83  -4.77c
iter: 338 22:33:20 -6789.256147c -6.87  -4.89c
iter: 339 22:49:53 -6789.256147c -6.89  -4.91c
Writing to output.gpw (mode='')

iter: 340 23:06:26 -6789.256147c -6.82  -4.96c
iter: 341 23:22:53 -6789.256148c -7.04  -4.97c
iter: 342 23:39:16 -6789.256148c -6.79  -4.94c
iter: 343 23:55:23 -6789.256149c -6.83  -4.87c
iter: 344 00:11:55 -6789.256149c -6.93  -4.84c
Writing to output.gpw (mode='')

iter: 345 00:28:39 -6789.256149c -6.96  -4.83c
iter: 346 00:45:05 -6789.256149c -6.95  -4.85c
iter: 347 01:01:37 -6789.256151c -6.77  -4.83c
iter: 348 01:18:11 -6789.256150c -6.93  -4.62c
iter: 349 01:34:43 -6789.256150c -6.93  -4.70c
Writing to output.gpw (mode='')

iter: 350 01:51:30 -6789.256150c -6.95  -4.72c
iter: 351 02:08:03 -6789.256151c -6.40  -4.92c
iter: 352 02:24:33 -6789.256151c -6.53  -4.88c
iter: 353 02:41:01 -6789.256151c -6.86  -4.85c
iter: 354 02:57:29 -6789.256151c -7.08  -4.89c
Writing to output.gpw (mode='')

iter: 355 03:13:38 -6789.256152c -7.19  -4.95c
iter: 356 03:30:00 -6789.256152c -6.95  -4.86c
iter: 357 03:46:14 -6789.256152c -6.95  -4.85c
iter: 358 04:02:30 -6789.256152c -6.96  -4.95c
iter: 359 04:19:15 -6789.256153c -7.17  -5.02c
Writing to output.gpw (mode='')

iter: 360 04:35:58 -6789.256153c -6.99  -5.03c
iter: 361 04:52:40 -6789.256154c -7.02  -4.92c
iter: 362 05:09:38 -6789.256154c -7.15  -4.89c
iter: 363 05:26:25 -6789.256155c -6.87  -4.88c
iter: 364 05:42:54 -6789.256155c -7.12  -4.65c
Writing to output.gpw (mode='')

iter: 365 05:59:17 -6789.256154c -6.91  -4.69c
iter: 366 06:15:23 -6789.256154c -7.01  -4.77c
iter: 367 06:31:35 -6789.256154c -6.81  -4.87c
iter: 368 06:47:50 -6789.256155c -6.93  -4.97c
iter: 369 07:04:46 -6789.256155c -7.04  -5.06c
Writing to output.gpw (mode='')

iter: 370 07:21:38 -6789.256155c -7.13  -5.10c
iter: 371 07:38:41 -6789.256155c -7.21  -5.14c
iter: 372 07:55:04 -6789.256156c -7.11  -5.15c
iter: 373 08:11:15 -6789.256156c -7.17  -5.14c
iter: 374 08:27:58 -6789.256156c -6.92  -5.12c
Writing to output.gpw (mode='')

iter: 375 08:44:24 -6789.256157c -7.25  -5.14c
iter: 376 09:00:35 -6789.256157c -6.88  -5.16c
iter: 377 09:16:58 -6789.256157c -7.27  -5.20c
iter: 378 09:33:58 -6789.256158c -6.93  -5.16c
iter: 379 09:50:51 -6789.256158c -7.15  -5.08c
Writing to output.gpw (mode='')

iter: 380 10:07:31 -6789.256158c -6.95  -5.06c
iter: 381 10:24:04 -6789.256158c -7.11  -4.99c
iter: 382 10:40:04 -6789.256159c -7.03  -4.97c
iter: 383 10:56:27 -6789.256159c -7.04  -4.96c
iter: 384 11:12:57 -6789.256159c -6.90  -4.90c
Writing to output.gpw (mode='')

iter: 385 11:29:43 -6789.256159c -6.83  -5.00c
iter: 386 11:46:27 -6789.256160c -7.08  -5.04c
iter: 387 12:02:41 -6789.256161c -6.75  -5.01c
iter: 388 12:18:47 -6789.256161c -6.93  -4.96c
iter: 389 12:35:02 -6789.256161c -6.90  -4.96c
Writing to output.gpw (mode='')

iter: 390 12:51:16 -6789.256161c -7.07  -5.05c
iter: 391 13:07:55 -6789.256162c -6.93  -5.07c
iter: 392 13:24:33 -6789.256162c -6.85  -5.10c
iter: 393 13:40:45 -6789.256163c -6.93  -5.10c
iter: 394 13:57:03 -6789.256163c -7.00  -5.10c
Writing to output.gpw (mode='')

iter: 395 14:13:15 -6789.256163c -6.77  -5.08c
iter: 396 14:29:55 -6789.256164c -7.01  -5.12c
iter: 397 14:46:27 -6789.256164c -6.80  -5.07c
iter: 398 15:02:59 -6789.256165c -6.90  -5.04c
iter: 399 15:19:23 -6789.256165c -6.87  -4.93c
Writing to output.gpw (mode='')

iter: 400 15:35:49 -6789.256166c -6.86  -4.91c
iter: 401 15:52:15 -6789.256167c -6.65  -4.87c
iter: 402 16:08:50 -6789.256167c -6.73  -4.86c
iter: 403 16:25:07 -6789.256167c -6.56  -5.03c
iter: 404 16:41:22 -6789.256168c -6.71  -5.12c
Writing to output.gpw (mode='')

iter: 405 16:57:45 -6789.256168c -6.73  -5.13c
iter: 406 17:14:00 -6789.256169c -6.76  -5.20c
iter: 407 17:30:17 -6789.256169c -6.85  -5.22c
iter: 408 17:46:56 -6789.256170c -6.68  -5.22c
iter: 409 18:03:06 -6789.256171c -6.79  -5.23c
Writing to output.gpw (mode='')

iter: 410 18:19:27 -6789.256171c -6.62  -5.25c
iter: 411 18:35:47 -6789.256172c -6.78  -5.30c
iter: 412 18:51:53 -6789.256172c -6.66  -5.32c
iter: 413 19:07:49 -6789.256173c -6.64  -5.33c
iter: 414 19:24:00 -6789.256174c -6.76  -5.35c
Writing to output.gpw (mode='')

iter: 415 19:40:20 -6789.256175c -6.50  -5.39c
iter: 416 19:56:20 -6789.256176c -6.77  -5.51c
iter: 417 20:12:36 -6789.256176c -6.56  -5.51c
iter: 418 20:28:55 -6789.256177c -6.56  -5.46c
iter: 419 20:45:34 -6789.256178c -6.56  -5.43c
Writing to output.gpw (mode='')

iter: 420 21:02:14 -6789.256179c -6.52  -5.37c
iter: 421 21:18:47 -6789.256180c -6.56  -5.28c
iter: 422 21:35:20 -6789.256181c -6.63  -5.28c
iter: 423 21:51:53 -6789.256183c -6.34  -5.23c
iter: 424 22:08:19 -6789.256184c -6.59  -5.13c
Writing to output.gpw (mode='')

iter: 425 22:25:00 -6789.256185c -6.30  -5.12c
iter: 426 22:41:47 -6789.256187c -6.44  -5.08c
iter: 427 22:58:35 -6789.256188c -6.55  -5.00c
iter: 428 23:15:13 -6789.256189c -6.32  -5.00c
iter: 429 23:31:44 -6789.256192c -6.34  -4.97c
Writing to output.gpw (mode='')

iter: 430 23:48:39 -6789.256193c -6.30  -5.10c
iter: 431 00:05:22 -6789.256194c -6.40  -5.11c
iter: 432 00:21:26 -6789.256196c -6.20  -5.13c
iter: 433 00:38:13 -6789.256198c -6.35  -5.14c
iter: 434 00:54:54 -6789.256199c -6.35  -5.22c
Writing to output.gpw (mode='')

iter: 435 01:11:38 -6789.256200c -6.26  -5.19c
iter: 436 01:27:55 -6789.256202c -6.23  -5.16c
iter: 437 01:44:31 -6789.256204c -6.22  -5.21c
iter: 438 02:01:05 -6789.256206c -6.25  -5.19c
iter: 439 02:17:39 -6789.256208c -6.20  -5.16c
Writing to output.gpw (mode='')

iter: 440 02:33:53 -6789.256211c -6.22  -5.20c
iter: 441 02:50:05 -6789.256214c -6.16  -5.16c
iter: 442 03:06:28 -6789.256216c -6.14  -5.18c
iter: 443 03:22:45 -6789.256219c -6.03  -5.22c
iter: 444 03:38:47 -6789.256222c -6.17  -5.25c
Writing to output.gpw (mode='')

iter: 445 03:55:10 -6789.256224c -6.07  -5.29c
iter: 446 04:11:44 -6789.256226c -6.24  -5.28c
iter: 447 04:28:10 -6789.256228c -5.98  -5.27c
iter: 448 04:44:50 -6789.256234c -5.97  -5.26c
iter: 449 05:01:16 -6789.256237c -6.08  -5.24c
Writing to output.gpw (mode='')

iter: 450 05:17:39 -6789.256241c -5.84  -5.29c
iter: 451 05:33:43 -6789.256244c -6.13  -5.33c
iter: 452 05:50:08 -6789.256247c -5.86  -5.33c
iter: 453 06:06:12 -6789.256253c -5.92  -5.33c
iter: 454 06:22:28 -6789.256256c -5.99  -5.27c
Writing to output.gpw (mode='')

iter: 455 06:38:27 -6789.256263c -5.78  -5.25c
iter: 456 06:55:12 -6789.256269c -5.91  -5.15c
iter: 457 07:11:49 -6789.256274c -5.66  -5.26c
iter: 458 07:28:30 -6789.256278c -5.86  -5.54c
iter: 459 07:44:52 -6789.256281c -5.87  -5.46c
Writing to output.gpw (mode='')

iter: 460 08:01:34 -6789.256285c -5.78  -5.38c
iter: 461 08:18:00 -6789.256289c -5.97  -5.36c
iter: 462 08:34:13 -6789.256295c -5.62  -5.30c
iter: 463 08:50:17 -6789.256301c -5.75  -5.26c
iter: 464 09:06:17 -6789.256306c -5.72  -5.30c
Writing to output.gpw (mode='')

iter: 465 09:22:25 -6789.256313c -5.73  -5.30c
iter: 466 09:38:31 -6789.256319c -5.73  -5.25c
iter: 467 09:54:41 -6789.256330c -5.50  -5.23c
iter: 468 10:11:00 -6789.256334c -5.77  -5.08c
iter: 469 10:27:21 -6789.256341c -5.64  -5.04c
Writing to output.gpw (mode='')

iter: 470 10:43:25 -6789.256355c -5.49  -5.08c
iter: 471 10:59:52 -6789.256362c -5.74  -4.93c
iter: 472 11:16:20 -6789.256376c -5.32  -4.94c
iter: 473 11:32:36 -6789.256383c -5.76  -5.19c
iter: 474 11:48:57 -6789.256395c -5.38  -5.20c
Writing to output.gpw (mode='')

iter: 475 12:05:13 -6789.256406c -5.58  -5.12c
iter: 476 12:21:43 -6789.256417c -5.42  -5.14c
iter: 477 12:38:06 -6789.256427c -5.45  -5.15c
iter: 478 12:54:25 -6789.256440c -5.48  -5.10c
iter: 479 13:10:43 -6789.256464c -5.30  -5.11c
Writing to output.gpw (mode='')

iter: 480 13:27:11 -6789.256477c -5.45  -4.88c
iter: 481 13:43:43 -6789.256491c -5.46  -4.90c
iter: 482 14:00:16 -6789.256507c -5.35  -4.86c
iter: 483 14:16:42 -6789.256525c -5.23  -4.85c
iter: 484 14:33:11 -6789.256539c -5.32  -4.90c
Writing to output.gpw (mode='')

iter: 485 14:49:23 -6789.256556c -5.27  -4.87c
iter: 486 15:05:52 -6789.256573c -5.36  -4.86c
iter: 487 15:22:07 -6789.256603c -5.20  -4.90c
iter: 488 15:38:24 -6789.256617c -5.19  -4.86c
iter: 489 15:54:30 -6789.256642c -5.17  -4.83c
Writing to output.gpw (mode='')

iter: 490 16:10:26 -6789.256666c -5.28  -4.88c
iter: 491 16:26:59 -6789.256691c -5.11  -4.82c
iter: 492 16:43:04 -6789.256716c -5.16  -4.80c
iter: 493 16:59:30 -6789.256753c -5.10  -4.73c
iter: 494 17:16:01 -6789.256772c -5.10  -4.51c
Writing to output.gpw (mode='')

iter: 495 17:32:11 -6789.256808c -5.08  -4.46c
iter: 496 17:48:25 -6789.256834c -4.94  -4.68c
iter: 497 18:04:48 -6789.256857c -5.20  -4.84c
iter: 498 18:21:30 -6789.256891c -4.87  -4.84c
iter: 499 18:37:51 -6789.256918c -5.12  -4.68c
Writing to output.gpw (mode='')

iter: 500 18:54:25 -6789.256944c -4.91  -4.61c
iter: 501 19:10:45 -6789.256975c -5.07  -4.59c
iter: 502 19:26:50 -6789.257007c -4.97  -4.55c
iter: 503 19:43:10 -6789.257047c -5.01  -4.58c
iter: 504 19:59:20 -6789.257098c -4.83  -4.51c
Writing to output.gpw (mode='')

iter: 505 20:15:44 -6789.257139c -4.97  -4.48c
iter: 506 20:32:19 -6789.257225c -4.62  -4.42c
iter: 507 20:48:48 -6789.257261c -4.97  -4.36c
iter: 508 21:04:58 -6789.257297c -4.75  -4.41c
iter: 509 21:21:19 -6789.257353c -4.97  -4.52c
Writing to output.gpw (mode='')

iter: 510 21:37:50 -6789.257435c -4.56  -4.42c
iter: 511 21:54:12 -6789.257483c -4.94  -4.61c
iter: 512 22:10:31 -6789.257526c -4.62  -4.63c
iter: 513 22:26:51 -6789.257570c -4.96  -4.65c
iter: 514 22:43:04 -6789.257632c -4.71  -4.66c
Writing to output.gpw (mode='')

iter: 515 22:59:26 -6789.257687c -4.84  -4.67c
iter: 516 23:15:36 -6789.257787c -4.59  -4.67c
iter: 517 23:31:52 -6789.257867c -4.83  -4.72c
iter: 518 23:48:24 -6789.257915c -4.59  -4.77c
iter: 519 00:04:43 -6789.257977c -4.71  -4.76c
Writing to output.gpw (mode='')

iter: 520 00:21:46 -6789.258099c -4.43  -4.72c
iter: 521 00:38:16 -6789.258157c -4.80  -4.56c
iter: 522 00:54:29 -6789.258255c -4.47  -4.50c
iter: 523 01:10:56 -6789.258334c -4.71  -4.49c
iter: 524 01:27:19 -6789.258458c -4.41  -4.44c
Writing to output.gpw (mode='')

iter: 525 01:43:46 -6789.258570c -4.56  -4.46c
iter: 526 02:00:01 -6789.258711c -4.30  -4.40c
iter: 527 02:16:33 -6789.258820c -4.60  -4.34c
iter: 528 02:32:50 -6789.258938c -4.35  -4.31c
iter: 529 02:48:39 -6789.259016c -4.54  -4.15c
Writing to output.gpw (mode='')

iter: 530 03:04:38 -6789.259146c -4.32  -4.11c
iter: 531 03:20:39 -6789.259284c -4.61  -4.34c
iter: 532 03:36:51 -6789.259439c -4.25  -4.31c
iter: 533 03:53:19 -6789.259546c -4.56  -4.12c
iter: 534 04:09:36 -6789.259644c -4.28  -4.16c
Writing to output.gpw (mode='')

iter: 535 04:26:34 -6789.259745c -4.49  -4.35c
iter: 536 04:43:14 -6789.259883c -4.26  -4.41c
iter: 537 04:59:32 -6789.260036c -4.29  -4.49c
iter: 538 05:15:46 -6789.260175c -4.26  -4.41c
iter: 539 05:31:46 -6789.260334c -4.33  -4.48c
Writing to output.gpw (mode='')

iter: 540 05:48:14 -6789.260509c -4.30  -4.54c
iter: 541 06:04:23 -6789.260733c -4.31  -4.55c
iter: 542 06:20:28 -6789.260978c -4.02  -4.61c
iter: 543 06:36:59 -6789.261237c -4.30  -4.51c
iter: 544 06:53:04 -6789.261488c -4.26  -4.57c
Writing to output.gpw (mode='')

iter: 545 07:09:29 -6789.261727c -4.08  -4.52c
iter: 546 07:26:08 -6789.261919c -4.05  -4.46c
iter: 547 07:42:42 -6789.262083c -4.30  -4.38c
iter: 548 07:59:11 -6789.262251c -4.12  -4.43c
iter: 549 08:15:29 -6789.262550c -4.13  -4.45c
Writing to output.gpw (mode='')

iter: 550 08:31:46 -6789.262927c -4.04  -4.39c
iter: 551 08:48:16 -6789.263292c -4.12  -4.31c
iter: 552 09:04:58 -6789.263553c -3.91  -4.22c
iter: 553 09:20:57 -6789.263846c -4.15  -4.17c
iter: 554 09:37:19 -6789.264153c -3.96  -4.09c
Writing to output.gpw (mode='')

iter: 555 09:53:27 -6789.264565c -4.03  -4.12c
iter: 556 10:09:42 -6789.264848c -3.95  -4.02c
iter: 557 10:26:15 -6789.265346c -3.93  -3.94
iter: 558 10:42:28 -6789.265635c -3.87  -3.92
iter: 559 10:59:03 -6789.265918c -4.10  -3.80
Writing to output.gpw (mode='')

iter: 560 11:15:19 -6789.266163c -3.86  -4.11c
iter: 561 11:31:25 -6789.266370c -4.18  -4.27c
iter: 562 11:47:44 -6789.266736c -3.90  -4.24c
iter: 563 12:04:05 -6789.267012c -4.04  -4.23c
iter: 564 12:20:30 -6789.267564c -3.80  -4.18c
Writing to output.gpw (mode='')

iter: 565 12:36:49 -6789.267984c -3.97  -4.12c
iter: 566 12:53:08 -6789.268292c -3.87  -4.05c
iter: 567 13:09:28 -6789.268654c -3.94  -4.03c
iter: 568 13:25:26 -6789.269481c -3.71  -4.02c
iter: 569 13:41:47 -6789.269922c -3.77  -3.87
Writing to output.gpw (mode='')

iter: 570 13:58:09 -6789.270460c -3.87  -3.80
iter: 571 14:14:20 -6789.270885c -3.85  -3.73
iter: 572 14:30:45 -6789.271288c -3.75  -3.86
iter: 573 14:47:12 -6789.271660c -3.83  -3.85
iter: 574 15:03:41 -6789.271998c -3.88  -3.86
Writing to output.gpw (mode='')

iter: 575 15:20:13 -6789.272494c -3.79  -3.98
iter: 576 15:36:36 -6789.273165c -3.78  -4.04c
iter: 577 15:52:57 -6789.273549c -3.69  -4.05c
iter: 578 16:09:22 -6789.274847c -3.61  -4.08c
iter: 579 16:25:44 -6789.275441c -3.81  -3.92
Writing to output.gpw (mode='')

iter: 580 16:42:11 -6789.275984c -3.66  -3.97
iter: 581 16:58:15 -6789.276806c -3.66  -3.89
iter: 582 17:14:27 -6789.277464c -3.75  -3.76
iter: 583 17:30:47 -6789.277996c -3.64  -3.71
iter: 584 17:47:18 -6789.278477c -3.74  -3.75
Writing to output.gpw (mode='')

iter: 585 18:03:19 -6789.278973c -3.75  -3.68
iter: 586 18:18:50 -6789.279905c -3.43  -3.67
iter: 587 18:35:23 -6789.280503c -3.92  -3.91
iter: 588 18:51:36 -6789.281272c -3.57  -3.92
iter: 589 19:08:04 -6789.282247c -3.58  -3.96
Writing to output.gpw (mode='')

iter: 590 19:24:46 -6789.283693c -3.41  -3.88
iter: 591 19:40:44 -6789.284587c -3.47  -3.80
iter: 592 19:56:41 -6789.285268c -3.72  -3.74
iter: 593 20:12:37 -6789.286071c -3.48  -3.70
iter: 594 20:28:43 -6789.286884c -3.63  -3.65
Writing to output.gpw (mode='')

iter: 595 20:44:59 -6789.287803c -3.54  -3.68
iter: 596 21:01:08 -6789.288939c -3.47  -3.64
iter: 597 21:17:45 -6789.289494c -3.67  -3.48
iter: 598 21:34:09 -6789.290008c -3.51  -3.53
iter: 599 21:50:39 -6789.290810c -3.77  -3.57
Writing to output.gpw (mode='')

iter: 600 22:07:09 -6789.291542c -3.51  -3.50
iter: 601 22:23:32 -6789.292819c -3.50  -3.47
iter: 602 22:40:18 -6789.293761c -3.42  -3.51
iter: 603 22:56:30 -6789.294358c -3.58  -3.60
iter: 604 23:12:48 -6789.295165c -3.58  -3.74
Writing to output.gpw (mode='')

iter: 605 23:29:00 -6789.295960c -3.53  -3.74
iter: 606 23:45:27 -6789.296831c -3.61  -3.78
iter: 607 00:01:50 -6789.299094c -3.29  -3.86
iter: 608 00:17:57 -6789.299803c -3.58  -3.42
iter: 609 00:34:06 -6789.299971c -3.51  -3.37
Writing to output.gpw (mode='')

iter: 610 00:50:53 -6789.300604c -3.50  -3.39
iter: 611 01:07:04 -6789.302265c -3.60  -3.54
iter: 612 01:23:28 -6789.303532c -3.28  -3.39
iter: 613 01:39:50 -6789.304360c -3.46  -3.60
iter: 614 01:56:10 -6789.305133c -3.59  -3.93
Writing to output.gpw (mode='')

iter: 615 02:12:29 -6789.306142c -3.62  -3.83
iter: 616 02:28:36 -6789.307155c -3.44  -3.90
iter: 617 02:44:52 -6789.307748c -3.57  -3.99
iter: 618 03:01:18 -6789.308437c -3.58  -3.93
iter: 619 03:17:50 -6789.309052c -3.54  -3.85
Writing to output.gpw (mode='')

iter: 620 03:34:27 -6789.310052c -3.61  -3.82
iter: 621 03:50:43 -6789.310682c -3.42  -3.93
iter: 622 04:07:10 -6789.311206c -3.80  -4.04c
iter: 623 04:23:30 -6789.311767c -3.56  -4.11c
iter: 624 04:39:58 -6789.312644c -3.70  -4.13c
Writing to output.gpw (mode='')

iter: 625 04:56:37 -6789.313223c -3.53  -4.15c
iter: 626 05:13:00 -6789.314114c -3.72  -4.19c
iter: 627 05:29:34 -6789.314875c -3.41  -4.21c
iter: 628 05:46:01 -6789.315934c -3.74  -4.19c
