
  ___ ___ ___ _ _ _  
 |   |   |_  | | | | 
 | | | | | . | | | | 
 |__ |  _|___|_____|  22.8.0
 |___|_|             

User:   vazumah@c07.hercules
Date:   Tue Feb  7 03:57:28 2023
Arch:   x86_64
Pid:    2683
CWD:    /home/vazumah/Python_projects/LiNRR/autocad_start/slab_experiments/free_slabs/Li/bcc111/substrate/2_fixed_layers
Python: 3.10.8
gpaw:   /home/vazumah/.conda/envs/GPAW/lib/python3.10/site-packages/gpaw
_gpaw:  /home/vazumah/.conda/envs/GPAW/lib/python3.10/site-packages/
        _gpaw.cpython-310-x86_64-linux-gnu.so
ase:    /home/vazumah/.conda/envs/GPAW/lib/python3.10/site-packages/ase (version 3.22.1)
numpy:  /home/vazumah/.conda/envs/GPAW/lib/python3.10/site-packages/numpy (version 1.24.1)
scipy:  /home/vazumah/.conda/envs/GPAW/lib/python3.10/site-packages/scipy (version 1.10.0)
libxc:  5.2.3
units:  Angstrom and eV
cores: 24
OpenMP: True
OMP_NUM_THREADS: 1

Input parameters:
  h: 0.16
  kpts: {size: [4, 4, 1]}
  maxiter: 999
  occupations: {name: fermi-dirac,
                width: 0.05}
  poissonsolver: {dipolelayer: xy}
  xc: BEEF-vdW

System changes: positions, numbers, cell, pbc, initial_charges, initial_magmoms 

Initialize ...

species:
  Li:
    name: Lithium
    id: 830b4218f175192f93f959cfc0aad614
    Z: 3.0
    valence: 1
    core: 2
    charge: 0.0
    file: /home/vazumah/.conda/envs/GPAW/share/gpaw/Li.PBE.gz
    compensation charges: {type: gauss,
                           rc: 0.33,
                           lmax: 2}
    cutoffs: {filter: 1.91,
              core: 2.55}
    valence states:
      #              energy  rcut
      - 2s(1.00)    -2.874   1.058
      - 2p(0.00)    -1.090   1.058
      -  s          24.337   1.058
  
    # Using partial waves for Li as LCAO basis

Reference energy: -7300.361529  # eV

Spin-paired calculation

Convergence criteria:
 Maximum [total energy] change in last 3 cyles: 0.0005 eV / electron
 Maximum integral of absolute [dens]ity change: 0.0001 electrons / valence electron
 Maximum integral of absolute [eigenst]ate change: 4e-08 eV^2 / valence electron
 Maximum number of scf [iter]ations: 999
 (Square brackets indicate name in SCF output, whereas a 'c' in
 the SCF output indicates the quantity has converged.)

Symmetries present (total): 12

  ( 1  0  0)  ( 1  0  0)  ( 1 -1  0)  ( 1 -1  0)  ( 0  1  0)  ( 0  1  0)
  ( 1 -1  0)  ( 0  1  0)  ( 1  0  0)  ( 0 -1  0)  ( 1  0  0)  (-1  1  0)
  ( 0  0 -1)  ( 0  0  1)  ( 0  0 -1)  ( 0  0  1)  ( 0  0  1)  ( 0  0 -1)

  ( 0 -1  0)  ( 0 -1  0)  (-1  1  0)  (-1  1  0)  (-1  0  0)  (-1  0  0)
  ( 1 -1  0)  (-1  0  0)  ( 0  1  0)  (-1  0  0)  ( 0 -1  0)  (-1  1  0)
  ( 0  0  1)  ( 0  0 -1)  ( 0  0 -1)  ( 0  0  1)  ( 0  0 -1)  ( 0  0  1)
Note: your k-points are not as symmetric as your crystal!

16 k-points: 4 x 4 x 1 Monkhorst-Pack grid
6 k-points in the irreducible part of the Brillouin zone
       k-points in crystal coordinates                weights
   0:     0.12500000   -0.12500000    0.00000000          2/16
   1:     0.12500000    0.12500000    0.00000000          2/16
   2:     0.37500000   -0.37500000    0.00000000          2/16
   3:     0.37500000   -0.12500000    0.00000000          4/16
   4:     0.37500000    0.12500000    0.00000000          4/16
   5:     0.37500000    0.37500000    0.00000000          2/16

Wave functions: Uniform real-space grid
  Kinetic energy operator: 8*3+1=25 point O(h^6) finite-difference Laplacian
  ScaLapack parameters: grid=1x1, blocksize=None
  Wavefunction extrapolation:
    Improved wavefunction reuse through dual PAW basis 

Occupation numbers: Fermi-Dirac:
  width: 0.0500  # eV
 

Eigensolver
   Davidson(niter=2) 

Densities:
  Coarse grid: 76*76*144 grid
  Fine grid: 152*152*288 grid
  Total Charge: 0.000000 

Density mixing:
  Method: separate
  Backend: pulay
  Linear mixing parameter: 0.05
  old densities: 5
  Damping of long wavelength oscillations: 50 

Hamiltonian:
  XC and Coulomb potentials evaluated on a 152*152*288 grid
  Using the BEEF-vdW Exchange-Correlation functional
  Interpolation: tri-quintic (5. degree polynomial)
  Poisson solver: FastPoissonSolver using
    Stencil: 8*3+1=25 point O(h^6) finite-difference Laplacian
    FFT axes: [0, 1]
    FST axes: [2]

Dipole correction along z-axis 

XC parameters: BEEF-vdW with 2 nearest neighbor stencil

Memory estimate:
  Process memory now: 229.07 MiB
  Calculator: 312.61 MiB
    Density: 101.59 MiB
      Arrays: 40.94 MiB
      Localized functions: 45.01 MiB
      Mixer: 15.64 MiB
    Hamiltonian: 30.33 MiB
      Arrays: 26.77 MiB
      XC: 0.00 MiB
      Poisson: 0.00 MiB
      vbar: 3.56 MiB
    Wavefunctions: 180.69 MiB
      Arrays psit_nG: 81.35 MiB
      Eigensolver: 97.10 MiB
      Projections: 0.02 MiB
      Projectors: 2.22 MiB

Total number of cores used: 24
Parallelization over k-points: 6
Domain decomposition: 1 x 2 x 2

Number of atoms: 36
Number of atomic orbitals: 144
Number of bands in calculation: 26
Number of valence electrons: 36
Bands to converge: occupied

... initialized

Initializing position-dependent things.

Density initialized from atomic densities
Creating initial wave functions:
  26 bands from LCAO basis set

                                                              
                                                              
                                                              
                                                              
                                                              
                       LiLi       LiLi        Lii             
                                                              
                              Li         Li         Li        
               LiLi       LiLi        Lii                     
                      Lii        Lii        LiLi              
       LiLi       LiLi        Lii                             
                                                              
              Lii        Lii        LiLi                      
                                                              
       Li         Li          Li                              
                                                              
                                                              
                                                              
                                                              

Positions:
   0 Li    -0.000000   -0.000000    9.804742    ( 0.0000,  0.0000,  0.0000)
   1 Li     4.573702   -0.000002    9.804862    ( 0.0000,  0.0000,  0.0000)
   2 Li     9.147312   -0.000002    9.804862    ( 0.0000,  0.0000,  0.0000)
   3 Li     2.286849    3.960943    9.804862    ( 0.0000,  0.0000,  0.0000)
   4 Li     6.860507    3.960916    9.804835    ( 0.0000,  0.0000,  0.0000)
   5 Li    11.434165    3.960943    9.804862    ( 0.0000,  0.0000,  0.0000)
   6 Li     4.573654    7.921806    9.804862    ( 0.0000,  0.0000,  0.0000)
   7 Li     9.147360    7.921806    9.804862    ( 0.0000,  0.0000,  0.0000)
   8 Li    13.721014    7.921831    9.804834    ( 0.0000,  0.0000,  0.0000)
   9 Li     2.286664    1.320206   11.144746    ( 0.0000,  0.0000,  0.0000)
  10 Li     6.860507    1.320506   11.144750    ( 0.0000,  0.0000,  0.0000)
  11 Li    11.434350    1.320206   11.144746    ( 0.0000,  0.0000,  0.0000)
  12 Li     4.573845    5.281120   11.144750    ( 0.0000,  0.0000,  0.0000)
  13 Li     9.147169    5.281120   11.144750    ( 0.0000,  0.0000,  0.0000)
  14 Li    13.721014    5.281391   11.144706    ( 0.0000,  0.0000,  0.0000)
  15 Li     6.860507    9.242334   11.144746    ( 0.0000,  0.0000,  0.0000)
  16 Li    11.434326    9.242051   11.144706    ( 0.0000,  0.0000,  0.0000)
  17 Li    16.007702    9.242051   11.144706    ( 0.0000,  0.0000,  0.0000)
  18 Li     0.000000    2.640413   11.656044    ( 0.0000,  0.0000,  0.0000)
  19 Li     4.573819    2.640696   11.656084    ( 0.0000,  0.0000,  0.0000)
  20 Li     9.147195    2.640696   11.656084    ( 0.0000,  0.0000,  0.0000)
  21 Li     2.286662    6.601626   11.656041    ( 0.0000,  0.0000,  0.0000)
  22 Li     6.860507    6.601356   11.656084    ( 0.0000,  0.0000,  0.0000)
  23 Li    11.434352    6.601626   11.656041    ( 0.0000,  0.0000,  0.0000)
  24 Li     4.573843   10.562540   11.656044    ( 0.0000,  0.0000,  0.0000)
  25 Li     9.147171   10.562540   11.656044    ( 0.0000,  0.0000,  0.0000)
  26 Li    13.721014   10.562241   11.656041    ( 0.0000,  0.0000,  0.0000)
  27 Li    -0.000000   -0.000000   12.996049    ( 0.0000,  0.0000,  0.0000)
  28 Li     4.573702    0.000002   12.995929    ( 0.0000,  0.0000,  0.0000)
  29 Li     9.147312    0.000002   12.995929    ( 0.0000,  0.0000,  0.0000)
  30 Li     2.286853    3.960941   12.995929    ( 0.0000,  0.0000,  0.0000)
  31 Li     6.860507    3.960916   12.995956    ( 0.0000,  0.0000,  0.0000)
  32 Li    11.434161    3.960941   12.995929    ( 0.0000,  0.0000,  0.0000)
  33 Li     4.573658    7.921804   12.995929    ( 0.0000,  0.0000,  0.0000)
  34 Li     9.147356    7.921804   12.995929    ( 0.0000,  0.0000,  0.0000)
  35 Li    13.721014    7.921831   12.995955    ( 0.0000,  0.0000,  0.0000)

Unit cell:
           periodic     x           y           z      points  spacing
  1. axis:    yes   13.721014    0.000000    0.000000    76     0.1564
  2. axis:    yes    6.860507   11.882747    0.000000    76     0.1564
  3. axis:    no     0.000000    0.000000   22.800790   144     0.1583

  Lengths:  13.721014  13.721014  22.800790
  Angles:   90.000000  90.000000  60.000000

Effective grid spacing dv^(1/3) = 0.1647

     iter     time        total  log10-change:
                         energy  eigst   dens
iter:   1 04:01:01  -193.274499
iter:   2 04:03:52  -192.502928  +0.31  -0.51
iter:   3 04:06:37  -189.709865  +1.30  -0.53
iter:   4 04:09:31  -188.570076  +0.06  -0.73
Writing to output.gpw (mode='')

iter:   5 04:12:25  -188.444492  -0.58  -0.95
iter:   6 04:15:05  -189.031657  +0.63  -1.01
iter:   7 04:17:46  -188.256992  -0.27  -0.92
iter:   8 04:20:29  -188.252194  -1.16  -1.48
iter:   9 04:23:22  -188.215794  -0.63  -1.51
Writing to output.gpw (mode='')

iter:  10 04:26:11  -188.223242  -1.05  -1.60
iter:  11 04:29:08  -188.225636c -1.62  -2.32
iter:  12 04:31:59  -188.224266c -2.40  -2.40
iter:  13 04:34:45  -188.226924c -2.32  -2.46
iter:  14 04:37:24  -188.225439c -3.17  -2.24
Writing to output.gpw (mode='')

iter:  15 04:40:10  -188.227210c -2.17  -2.40
iter:  16 04:42:52  -188.225356c -2.40  -2.36
iter:  17 04:45:45  -188.225540c -2.93  -2.55
iter:  18 04:48:37  -188.225332c -3.32  -2.95
iter:  19 04:51:30  -188.225498c -3.52  -3.05
Writing to output.gpw (mode='')

iter:  20 04:54:17  -188.225503c -3.68  -3.04
iter:  21 04:57:13  -188.225586c -3.80  -2.99
iter:  22 05:00:06  -188.225505c -3.89  -3.00
iter:  23 05:03:13  -188.225599c -3.95  -3.03
iter:  24 05:06:04  -188.225515c -4.08  -2.93
Writing to output.gpw (mode='')

iter:  25 05:09:02  -188.225522c -4.09  -3.06
iter:  26 05:12:04  -188.225539c -4.21  -3.09
iter:  27 05:15:02  -188.225534c -4.29  -3.11
iter:  28 05:17:56  -188.225558c -4.26  -3.13
iter:  29 05:20:46  -188.225547c -4.23  -3.21
Writing to output.gpw (mode='')

iter:  30 05:23:46  -188.225542c -4.41  -3.37
iter:  31 05:26:32  -188.225534c -4.16  -3.39
iter:  32 05:29:17  -188.225516c -4.40  -3.25
iter:  33 05:32:12  -188.225502c -4.50  -3.48
iter:  34 05:34:57  -188.225511c -4.72  -3.79
Writing to output.gpw (mode='')

iter:  35 05:37:47  -188.225504c -4.91  -3.66
iter:  36 05:40:41  -188.225502c -4.92  -3.90
iter:  37 05:43:33  -188.225503c -5.16  -4.05c
iter:  38 05:46:21  -188.225503c -5.22  -4.05c
iter:  39 05:49:11  -188.225504c -5.27  -4.13c
Writing to output.gpw (mode='')

iter:  40 05:52:13  -188.225502c -5.39  -4.18c
iter:  41 05:55:14  -188.225501c -5.45  -4.32c
iter:  42 05:58:07  -188.225504c -5.49  -4.44c
iter:  43 06:00:58  -188.225502c -5.60  -4.30c
iter:  44 06:03:51  -188.225502c -5.65  -4.55c
Writing to output.gpw (mode='')

iter:  45 06:06:44  -188.225503c -5.66  -4.57c
iter:  46 06:09:38  -188.225501c -5.71  -4.44c
iter:  47 06:12:24  -188.225501c -5.79  -5.10c
iter:  48 06:15:07  -188.225501c -5.84  -5.20c
iter:  49 06:18:01  -188.225501c -5.89  -5.12c
Writing to output.gpw (mode='')

iter:  50 06:20:47  -188.225501c -5.93  -5.12c
iter:  51 06:23:37  -188.225501c -5.98  -5.05c
iter:  52 06:26:35  -188.225501c -6.01  -5.07c
iter:  53 06:29:45  -188.225501c -6.05  -5.00c
iter:  54 06:32:28  -188.225500c -6.08  -4.99c
Writing to output.gpw (mode='')

iter:  55 06:35:23  -188.225500c -6.14  -5.03c
iter:  56 06:38:18  -188.225500c -6.14  -5.00c
iter:  57 06:41:16  -188.225500c -6.22  -5.13c
iter:  58 06:44:11  -188.225500c -6.26  -5.16c
iter:  59 06:46:56  -188.225499c -6.30  -5.34c
Writing to output.gpw (mode='')

iter:  60 06:49:49  -188.225499c -6.32  -5.58c
iter:  61 06:52:40  -188.225499c -6.31  -5.59c
iter:  62 06:55:30  -188.225499c -6.39  -5.65c
iter:  63 06:58:26  -188.225499c -6.42  -5.72c
iter:  64 07:01:17  -188.225499c -6.45  -5.72c
Writing to output.gpw (mode='')

iter:  65 07:04:07  -188.225499c -6.51  -5.74c
iter:  66 07:07:01  -188.225499c -6.55  -5.95c
iter:  67 07:09:56  -188.225499c -6.58  -5.91c
iter:  68 07:12:41  -188.225499c -6.60  -5.93c
iter:  69 07:15:32  -188.225498c -6.64  -6.00c
Writing to output.gpw (mode='')

iter:  70 07:18:36  -188.225498c -6.67  -6.26c
iter:  71 07:21:36  -188.225498c -6.70  -6.43c
iter:  72 07:24:30  -188.225498c -6.73  -6.41c
iter:  73 07:27:33  -188.225498c -6.77  -6.27c
iter:  74 07:30:43  -188.225498c -6.79  -6.27c
Writing to output.gpw (mode='')

iter:  75 07:33:42  -188.225498c -6.82  -6.21c
iter:  76 07:36:40  -188.225498c -6.85  -6.16c
iter:  77 07:39:40  -188.225498c -6.89  -6.21c
iter:  78 07:42:45  -188.225498c -6.92  -6.10c
iter:  79 07:45:45  -188.225498c -6.95  -6.14c
Writing to output.gpw (mode='')

iter:  80 07:48:30  -188.225498c -6.98  -6.11c
iter:  81 07:51:23  -188.225498c -7.00  -6.11c
iter:  82 07:54:28  -188.225498c -7.04  -6.16c
iter:  83 07:57:19  -188.225498c -7.07  -6.11c
iter:  84 08:00:12  -188.225498c -7.10  -5.97c
Writing to output.gpw (mode='')

iter:  85 08:03:17  -188.225498c -7.13  -6.09c
iter:  86 08:06:17  -188.225498c -7.16  -5.97c
iter:  87 08:09:10  -188.225498c -7.19  -6.13c
iter:  88 08:11:59  -188.225498c -7.22  -6.03c
iter:  89 08:14:39  -188.225498c -7.24  -6.08c
Writing to output.gpw (mode='')

iter:  90 08:17:39  -188.225498c -7.29  -6.05c
iter:  91 08:20:38  -188.225498c -7.31  -6.00c
iter:  92 08:23:28  -188.225498c -7.34  -5.94c
iter:  93 08:26:10  -188.225498c -7.36  -6.06c
iter:  94 08:29:05  -188.225498c -7.40  -5.82c
Writing to output.gpw (mode='')

iter:  95 08:31:57  -188.225498c -7.41c -6.05c

Converged after 95 iterations.

Dipole moment: (-6.168069, -3.561136, -0.000000) |e|*Ang

Energy contributions relative to reference atoms: (reference = -7300.361529)

Kinetic:        +59.054868
Potential:      -50.141027
External:        +0.000000
XC:            -196.913655
Entropy (-ST):   -0.124523
Local:           -0.163423
--------------------------
Free energy:   -188.287759
Extrapolated:  -188.225498

Dipole-layer corrected work functions: 3.177949, 3.177949 eV

Showing only first 2 kpts
 Kpt  Band  Eigenvalues  Occupancy
  0    16     -3.32150    1.89279
  0    17     -3.32149    1.89276
  0    18     -3.28802    1.80077
  0    19     -3.12494    0.51456

  1    16     -3.38421    1.96819
  1    17     -3.36473    1.95339
  1    18     -3.27953    1.76816
  1    19     -3.27946    1.76785


Fermi level: -3.17795

No gap

Forces in eV/Ang:
  0 Li    0.00000    0.00000    0.03622
  1 Li    0.00008    0.00001    0.03616
  2 Li   -0.00008    0.00001    0.03616
  3 Li    0.00005    0.00006    0.03616
  4 Li   -0.00000    0.00000    0.03589
  5 Li   -0.00005    0.00006    0.03616
  6 Li   -0.00003   -0.00007    0.03616
  7 Li    0.00003   -0.00007    0.03616
  8 Li   -0.00000    0.00000    0.03588
  9 Li    0.00004    0.00003    0.04977
 10 Li    0.00000   -0.00028    0.04984
 11 Li   -0.00004    0.00003    0.04977
 12 Li   -0.00024    0.00014    0.04984
 13 Li    0.00024    0.00014    0.04984
 14 Li    0.00000   -0.00039    0.04977
 15 Li   -0.00000   -0.00005    0.04977
 16 Li   -0.00034    0.00020    0.04977
 17 Li    0.00034    0.00020    0.04977
 18 Li   -0.00000    0.00005   -0.04977
 19 Li   -0.00034   -0.00020   -0.04977
 20 Li    0.00034   -0.00020   -0.04977
 21 Li    0.00024   -0.00014   -0.04984
 22 Li    0.00000    0.00039   -0.04977
 23 Li   -0.00024   -0.00014   -0.04984
 24 Li   -0.00004   -0.00003   -0.04977
 25 Li    0.00004   -0.00003   -0.04977
 26 Li    0.00000    0.00028   -0.04984
 27 Li   -0.00000    0.00000   -0.03622
 28 Li    0.00008   -0.00001   -0.03616
 29 Li   -0.00008   -0.00001   -0.03616
 30 Li    0.00003    0.00007   -0.03616
 31 Li    0.00000   -0.00000   -0.03588
 32 Li   -0.00003    0.00007   -0.03616
 33 Li   -0.00005   -0.00006   -0.03616
 34 Li    0.00005   -0.00006   -0.03616
 35 Li    0.00000   -0.00000   -0.03589

Timing:                              incl.     excl.
-----------------------------------------------------------
Forces:                              1.875     1.875   0.0% |
Hamiltonian:                       151.982     0.000   0.0% |
 Atomic:                             0.435     0.235   0.0% |
  XC Correction:                     0.200     0.200   0.0% |
 Calculate atomic Hamiltonians:      0.160     0.160   0.0% |
 Communicate:                        0.175     0.175   0.0% |
 Hartree integrate/restrict:         0.225     0.225   0.0% |
 Initialize Hamiltonian:             0.000     0.000   0.0% |
 Poisson:                            3.245     0.328   0.0% |
  Communicate from 1D:               0.503     0.503   0.0% |
  Communicate from 2D:               0.280     0.280   0.0% |
  Communicate to 1D:                 0.259     0.259   0.0% |
  Communicate to 2D:                 0.892     0.892   0.0% |
  FFT 1D:                            0.420     0.420   0.0% |
  FFT 2D:                            0.562     0.562   0.0% |
 XC 3D grid:                       147.704    10.380   0.1% |
  VdW-DF integral:                 137.324     0.435   0.0% |
   Convolution:                      9.511     9.511   0.1% |
   FFT:                              1.888     1.888   0.0% |
   gather:                          92.805    92.805   0.6% |
   hmm1:                             1.039     1.039   0.0% |
   hmm2:                             1.759     1.759   0.0% |
   iFFT:                             1.937     1.937   0.0% |
   potential:                       10.426     0.069   0.0% |
    collect:                         1.222     1.222   0.0% |
    p1:                              4.390     4.390   0.0% |
    p2:                              3.112     3.112   0.0% |
    sum:                             1.633     1.633   0.0% |
   splines:                         17.523    17.523   0.1% |
 vbar:                               0.037     0.037   0.0% |
LCAO initialization:                 6.148     0.049   0.0% |
 LCAO eigensolver:                   0.820     0.001   0.0% |
  Calculate projections:             0.001     0.001   0.0% |
  DenseAtomicCorrection:             0.003     0.003   0.0% |
  Distribute overlap matrix:         0.279     0.279   0.0% |
  Orbital Layouts:                   0.055     0.055   0.0% |
  Potential matrix:                  0.480     0.480   0.0% |
  Sum over cells:                    0.002     0.002   0.0% |
 LCAO to grid:                       4.623     4.623   0.0% |
 Set positions (LCAO WFS):           0.655     0.279   0.0% |
  Basic WFS set positions:           0.076     0.076   0.0% |
  Basis functions set positions:     0.001     0.001   0.0% |
  P tci:                             0.113     0.113   0.0% |
  ST tci:                            0.079     0.079   0.0% |
  mktci:                             0.108     0.108   0.0% |
SCF-cycle:                       16287.865   172.408   1.0% |
 Davidson:                        2744.165  1064.740   6.5% |--|
  Apply hamiltonian:               233.911   233.911   1.4% ||
  Subspace diag:                   402.024     0.042   0.0% |
   calc_h_matrix:                  274.597    52.302   0.3% |
    Apply hamiltonian:             222.295   222.295   1.3% ||
   diagonalize:                     17.302    17.302   0.1% |
   rotate_psi:                     110.082   110.082   0.7% |
  calc. matrices:                  841.105   407.658   2.5% ||
   Apply hamiltonian:              433.447   433.447   2.6% ||
  diagonalize:                       0.548     0.548   0.0% |
  rotate_psi:                      201.837   201.837   1.2% |
 Density:                          289.228     0.004   0.0% |
  Atomic density matrices:          37.649    37.649   0.2% |
  Mix:                              47.256    47.256   0.3% |
  Multipole moments:                 0.978     0.978   0.0% |
  Pseudo density:                  203.341    26.509   0.2% |
   Symmetrize density:             176.832   176.832   1.1% |
 Hamiltonian:                    13080.160     0.036   0.0% |
  Atomic:                           42.717    28.222   0.2% |
   XC Correction:                   14.495    14.495   0.1% |
  Calculate atomic Hamiltonians:    17.494    17.494   0.1% |
  Communicate:                      11.490    11.490   0.1% |
  Hartree integrate/restrict:       25.131    25.131   0.2% |
  Poisson:                         296.058    27.545   0.2% |
   Communicate from 1D:             51.154    51.154   0.3% |
   Communicate from 2D:             50.413    50.413   0.3% |
   Communicate to 1D:               32.189    32.189   0.2% |
   Communicate to 2D:               47.464    47.464   0.3% |
   FFT 1D:                          37.275    37.275   0.2% |
   FFT 2D:                          50.017    50.017   0.3% |
  XC 3D grid:                    12683.063  1007.882   6.1% |-|
   VdW-DF integral:              11675.180    32.381   0.2% |
    Convolution:                   854.659   854.659   5.2% |-|
    FFT:                           177.504   177.504   1.1% |
    gather:                       9114.995  9114.995  55.3% |---------------------|
    hmm1:                          129.696   129.696   0.8% |
    hmm2:                          186.490   186.490   1.1% |
    iFFT:                          175.181   175.181   1.1% |
    potential:                    1004.273     9.421   0.1% |
     collect:                      109.889   109.889   0.7% |
     p1:                           389.616   389.616   2.4% ||
     p2:                           262.455   262.455   1.6% ||
     sum:                          232.893   232.893   1.4% ||
    splines:                         0.001     0.001   0.0% |
  vbar:                              4.172     4.172   0.0% |
 Orthonormalize:                     1.904     0.000   0.0% |
  calc_s_matrix:                     0.272     0.272   0.0% |
  inverse-cholesky:                  0.057     0.057   0.0% |
  projections:                       1.217     1.217   0.0% |
  rotate_psi_s:                      0.357     0.357   0.0% |
Set symmetry:                        0.010     0.010   0.0% |
Other:                              23.143    23.143   0.1% |
-----------------------------------------------------------
Total:                                     16471.023 100.0%

Memory usage: 1.86 GiB
Date: Tue Feb  7 08:31:59 2023
