
  ___ ___ ___ _ _ _  
 |   |   |_  | | | | 
 | | | | | . | | | | 
 |__ |  _|___|_____|  22.8.0
 |___|_|             

User:   vazumah@c07.hercules
Date:   Sat Jan 28 23:42:42 2023
Arch:   x86_64
Pid:    27416
CWD:    /home/vazumah/Python_projects/LiNRR/autocad_start/slab_experiments/free_slabs/Li/bcc100/substrate
Python: 3.10.8
gpaw:   /home/vazumah/.conda/envs/GPAW/lib/python3.10/site-packages/gpaw
_gpaw:  /home/vazumah/.conda/envs/GPAW/lib/python3.10/site-packages/
        _gpaw.cpython-310-x86_64-linux-gnu.so
ase:    /home/vazumah/.conda/envs/GPAW/lib/python3.10/site-packages/ase (version 3.22.1)
numpy:  /home/vazumah/.conda/envs/GPAW/lib/python3.10/site-packages/numpy (version 1.24.1)
scipy:  /home/vazumah/.conda/envs/GPAW/lib/python3.10/site-packages/scipy (version 1.10.0)
libxc:  5.2.3
units:  Angstrom and eV
cores: 24
OpenMP: True
OMP_NUM_THREADS: 1

Reading from output.gpw
Read dipole, energy, free_energy, magmom, magmoms
Reading input parameters:
  h: 0.16
  kpts: {size: [2, 2, 1]}
  maxiter: 999
  occupations: {name: fermi-dirac,
                width: 0.05}
  poissonsolver: {dipolelayer: xy}
  xc: BEEF-vdW

Initialize ...

species:
  Li:
    name: Lithium
    id: 830b4218f175192f93f959cfc0aad614
    Z: 3.0
    valence: 1
    core: 2
    charge: 0.0
    file: /home/vazumah/.conda/envs/GPAW/share/gpaw/Li.PBE.gz
    compensation charges: {type: gauss,
                           rc: 0.33,
                           lmax: 2}
    cutoffs: {filter: 1.91,
              core: 2.55}
    valence states:
      #              energy  rcut
      - 2s(1.00)    -2.874   1.058
      - 2p(0.00)    -1.090   1.058
      -  s          24.337   1.058
  
    # Using partial waves for Li as LCAO basis

Reference energy: -7300.361529  # eV

Spin-paired calculation

Convergence criteria:
 Maximum [total energy] change in last 3 cyles: 0.0005 eV / electron
 Maximum integral of absolute [dens]ity change: 0.0001 electrons / valence electron
 Maximum integral of absolute [eigenst]ate change: 4e-08 eV^2 / valence electron
 Maximum number of scf [iter]ations: 999
 (Square brackets indicate name in SCF output, whereas a 'c' in
 the SCF output indicates the quantity has converged.)

Symmetries present (total): 8

  ( 1  0  0)  ( 1  0  0)  ( 0  1  0)  ( 0  1  0)  ( 0 -1  0)  ( 0 -1  0)
  ( 0  1  0)  ( 0 -1  0)  ( 1  0  0)  (-1  0  0)  ( 1  0  0)  (-1  0  0)
  ( 0  0  1)  ( 0  0  1)  ( 0  0  1)  ( 0  0  1)  ( 0  0  1)  ( 0  0  1)

  (-1  0  0)  (-1  0  0)
  ( 0  1  0)  ( 0 -1  0)
  ( 0  0  1)  ( 0  0  1)

4 k-points: 2 x 2 x 1 Monkhorst-Pack grid
1 k-point in the irreducible part of the Brillouin zone
       k-points in crystal coordinates                weights
   0:     0.25000000    0.25000000    0.00000000          4/4

Wave functions: Uniform real-space grid
  Kinetic energy operator: 6*3+1=19 point O(h^6) finite-difference Laplacian
  ScaLapack parameters: grid=1x1, blocksize=None
  Wavefunction extrapolation:
    Improved wavefunction reuse through dual PAW basis 

Occupation numbers: Fermi-Dirac:
  width: 0.0500  # eV
 

Eigensolver
   Davidson(niter=2) 

Densities:
  Coarse grid: 60*60*156 grid
  Fine grid: 120*120*312 grid
  Total Charge: 0.000000 

Density mixing:
  Method: separate
  Backend: pulay
  Linear mixing parameter: 0.05
  old densities: 5
  Damping of long wavelength oscillations: 50 

Hamiltonian:
  XC and Coulomb potentials evaluated on a 120*120*312 grid
  Using the BEEF-vdW Exchange-Correlation functional
  Interpolation: tri-quintic (5. degree polynomial)
  Poisson solver: FastPoissonSolver using
    Stencil: 6*3+1=19 point O(h^6) finite-difference Laplacian
    FFT axes: [0, 1]
    FST axes: [2]

Dipole correction along z-axis 

XC parameters: BEEF-vdW with 2 nearest neighbor stencil

Memory estimate:
  Process memory now: 90.54 MiB
  Calculator: 37.99 MiB
    Density: 14.31 MiB
      Arrays: 4.55 MiB
      Localized functions: 8.05 MiB
      Mixer: 1.72 MiB
    Hamiltonian: 3.61 MiB
      Arrays: 2.97 MiB
      XC: 0.00 MiB
      Poisson: 0.00 MiB
      vbar: 0.64 MiB
    Wavefunctions: 20.07 MiB
      Arrays psit_nG: 8.93 MiB
      Eigensolver: 10.75 MiB
      Projections: 0.00 MiB
      Projectors: 0.40 MiB

Total number of cores used: 24
Domain decomposition: 2 x 2 x 6

Number of atoms: 36
Number of atomic orbitals: 144
Number of bands in calculation: 26
Number of valence electrons: 36
Bands to converge: occupied

... initialized

Initializing position-dependent things.

Creating initial wave functions:
  26 bands from LCAO basis set

       .-----------------------.  
      /|                       |  
     / |                       |  
    /  |                       |  
   /   |                       |  
  /    |                       |  
 *     |                       |  
 |     |                       |  
 |     |                       |  
 |     |                       |  
 |     |                       |  
 |     |                       |  
 |     |                       |  
 |     |                       |  
 |   Li|     Li      Li        |  
 |     |  Li      Li      Li   |  
 | Li  |   Li      Li          |  
 |     |Li      Li      Li     |  
 Li    | Li      Li            |  
 |   LLi     LLi     LLi       |  
 |     |  Li      Li      Li   |  
 | Li  |   Li      Li          |  
 |     |Li      Li      Li     |  
 Li    | Li      Li            |  
 |    Li      Li      Li       |  
 |     |                       |  
 |     |                       |  
 |     |                       |  
 |     |                       |  
 |     |                       |  
 |     |                       |  
 |     .-----------------------.  
 |    /                       /   
 |   /                       /    
 |  /                       /     
 | /                       /      
 |/                       /       
 *-----------------------*        

Positions:
   0 Li     1.617034    1.617034    9.334778    ( 0.0000,  0.0000,  0.0000)
   1 Li     4.851111    1.617030    9.334776    ( 0.0000,  0.0000,  0.0000)
   2 Li     8.085188    1.617034    9.334778    ( 0.0000,  0.0000,  0.0000)
   3 Li     1.617030    4.851111    9.334776    ( 0.0000,  0.0000,  0.0000)
   4 Li     4.851111    4.851111    9.334789    ( 0.0000,  0.0000,  0.0000)
   5 Li     8.085192    4.851111    9.334776    ( 0.0000,  0.0000,  0.0000)
   6 Li     1.617034    8.085188    9.334778    ( 0.0000,  0.0000,  0.0000)
   7 Li     4.851111    8.085192    9.334776    ( 0.0000,  0.0000,  0.0000)
   8 Li     8.085188    8.085188    9.334778    ( 0.0000,  0.0000,  0.0000)
   9 Li     0.000000    0.000000   11.385021    ( 0.0000,  0.0000,  0.0000)
  10 Li     3.234073   -0.000000   11.385021    ( 0.0000,  0.0000,  0.0000)
  11 Li     6.468149    0.000000   11.385021    ( 0.0000,  0.0000,  0.0000)
  12 Li     0.000000    3.234073   11.385021    ( 0.0000,  0.0000,  0.0000)
  13 Li     3.234073    3.234073   11.385021    ( 0.0000,  0.0000,  0.0000)
  14 Li     6.468149    3.234073   11.385021    ( 0.0000,  0.0000,  0.0000)
  15 Li    -0.000000    6.468149   11.385021    ( 0.0000,  0.0000,  0.0000)
  16 Li     3.234073    6.468149   11.385021    ( 0.0000,  0.0000,  0.0000)
  17 Li     6.468149    6.468149   11.385021    ( 0.0000,  0.0000,  0.0000)
  18 Li     1.617037    1.617037   13.466100    ( 0.0000,  0.0000,  0.0000)
  19 Li     4.851111    1.617035   13.466100    ( 0.0000,  0.0000,  0.0000)
  20 Li     8.085185    1.617037   13.466100    ( 0.0000,  0.0000,  0.0000)
  21 Li     1.617035    4.851111   13.466100    ( 0.0000,  0.0000,  0.0000)
  22 Li     4.851111    4.851111   13.466099    ( 0.0000,  0.0000,  0.0000)
  23 Li     8.085187    4.851111   13.466100    ( 0.0000,  0.0000,  0.0000)
  24 Li     1.617037    8.085185   13.466100    ( 0.0000,  0.0000,  0.0000)
  25 Li     4.851111    8.085187   13.466100    ( 0.0000,  0.0000,  0.0000)
  26 Li     8.085185    8.085185   13.466100    ( 0.0000,  0.0000,  0.0000)
  27 Li     0.000000    0.000000   15.516327    ( 0.0000,  0.0000,  0.0000)
  28 Li     3.234079    0.000000   15.516340    ( 0.0000,  0.0000,  0.0000)
  29 Li     6.468143    0.000000   15.516340    ( 0.0000,  0.0000,  0.0000)
  30 Li     0.000000    3.234079   15.516340    ( 0.0000,  0.0000,  0.0000)
  31 Li     3.234075    3.234075   15.516337    ( 0.0000,  0.0000,  0.0000)
  32 Li     6.468147    3.234075   15.516337    ( 0.0000,  0.0000,  0.0000)
  33 Li    -0.000000    6.468143   15.516340    ( 0.0000,  0.0000,  0.0000)
  34 Li     3.234075    6.468147   15.516337    ( 0.0000,  0.0000,  0.0000)
  35 Li     6.468147    6.468147   15.516337    ( 0.0000,  0.0000,  0.0000)

Unit cell:
           periodic     x           y           z      points  spacing
  1. axis:    yes    9.702222    0.000000    0.000000    60     0.1617
  2. axis:    yes    0.000000    9.702222    0.000000    60     0.1617
  3. axis:    no     0.000000    0.000000   24.851111   156     0.1593

  Lengths:   9.702222   9.702222  24.851111
  Angles:   90.000000  90.000000  90.000000

Effective grid spacing dv^(1/3) = 0.1609

     iter     time        total  log10-change:
                         energy  eigst   dens
iter:   1 23:45:08  -194.820371  +0.87
iter:   2 23:47:10  -195.098117  +0.33  -1.83
iter:   3 23:49:09  -195.188098  -0.10  -2.05
iter:   4 23:50:58  -195.225432  -0.44  -2.25
Writing to output.gpw (mode='')

iter:   5 23:52:50  -195.243710  -0.74  -2.48
iter:   6 23:54:51  -195.252335  -1.09  -2.59
iter:   7 23:56:46  -195.257361c -1.31  -2.97
iter:   8 23:58:48  -195.259689c -1.64  -2.72
iter:   9 00:00:46  -195.261440c -1.90  -2.96
Writing to output.gpw (mode='')

iter:  10 00:02:34  -195.262264c -2.12  -3.50
iter:  11 00:04:26  -195.262809c -2.30  -3.55
iter:  12 00:06:18  -195.263157c -2.44  -3.20
iter:  13 00:08:08  -195.263489c -2.61  -3.00
iter:  14 00:10:02  -195.263608c -2.69  -3.02
Writing to output.gpw (mode='')

iter:  15 00:11:57  -195.263803c -2.88  -2.81
iter:  16 00:13:50  -195.263965c -2.96  -2.85
iter:  17 00:15:44  -195.264077c -3.02  -3.04
iter:  18 00:17:30  -195.264148c -3.20  -3.47
iter:  19 00:19:14  -195.264158c -3.36  -3.47
Writing to output.gpw (mode='')

iter:  20 00:21:06  -195.264276c -3.40  -3.29
iter:  21 00:22:58  -195.264292c -3.58  -3.56
iter:  22 00:24:59  -195.264313c -3.69  -3.41
iter:  23 00:26:50  -195.264334c -3.78  -3.42
iter:  24 00:28:47  -195.264408c -3.70  -3.40
Writing to output.gpw (mode='')

iter:  25 00:30:42  -195.264385c -3.98  -3.47
iter:  26 00:32:30  -195.264370c -4.01  -3.44
iter:  27 00:34:25  -195.264354c -4.14  -3.87
iter:  28 00:36:16  -195.264392c -4.21  -3.76
iter:  29 00:38:06  -195.264379c -4.27  -3.82
Writing to output.gpw (mode='')

iter:  30 00:40:03  -195.264387c -4.35  -3.93
iter:  31 00:41:56  -195.264393c -4.39  -3.98
iter:  32 00:43:57  -195.264400c -4.45  -3.98
iter:  33 00:45:52  -195.264411c -4.49  -4.00
iter:  34 00:47:47  -195.264426c -4.48  -4.03c
Writing to output.gpw (mode='')

iter:  35 00:49:50  -195.264419c -4.62  -3.80
iter:  36 00:51:47  -195.264408c -4.64  -4.02c
iter:  37 00:53:45  -195.264408c -4.66  -4.00c
iter:  38 00:55:41  -195.264399c -4.77  -4.20c
iter:  39 00:57:35  -195.264396c -4.80  -4.29c
Writing to output.gpw (mode='')

iter:  40 00:59:41  -195.264393c -4.82  -4.34c
iter:  41 01:01:46  -195.264389c -4.88  -4.23c
iter:  42 01:03:55  -195.264398c -4.96  -4.30c
iter:  43 01:05:52  -195.264383c -4.88  -4.32c
iter:  44 01:07:45  -195.264386c -4.97  -3.98
Writing to output.gpw (mode='')

iter:  45 01:09:40  -195.264405c -5.03  -3.98
iter:  46 01:11:42  -195.264425c -4.91  -4.29c
iter:  47 01:13:38  -195.264421c -5.18  -4.04c
iter:  48 01:15:41  -195.264401c -5.10  -4.10c
iter:  49 01:17:45  -195.264395c -5.16  -4.41c
Writing to output.gpw (mode='')

iter:  50 01:19:44  -195.264426c -5.22  -4.41c
iter:  51 01:21:40  -195.264405c -5.27  -4.22c
iter:  52 01:23:28  -195.264409c -5.41  -4.70c
iter:  53 01:25:26  -195.264401c -5.40  -4.69c
iter:  54 01:27:23  -195.264407c -5.48  -4.52c
Writing to output.gpw (mode='')

iter:  55 01:29:14  -195.264409c -5.53  -4.71c
iter:  56 01:31:10  -195.264412c -5.55  -4.75c
iter:  57 01:33:11  -195.264408c -5.57  -4.79c
iter:  58 01:35:04  -195.264412c -5.67  -4.87c
iter:  59 01:37:03  -195.264413c -5.72  -5.44c
Writing to output.gpw (mode='')

iter:  60 01:38:57  -195.264414c -5.80  -5.43c
iter:  61 01:40:51  -195.264414c -5.84  -5.71c
iter:  62 01:42:46  -195.264414c -5.89  -5.48c
iter:  63 01:44:40  -195.264414c -5.94  -5.30c
iter:  64 01:46:31  -195.264414c -5.98  -5.17c
Writing to output.gpw (mode='')

iter:  65 01:48:28  -195.264414c -6.03  -5.15c
iter:  66 01:50:23  -195.264414c -6.07  -5.05c
iter:  67 01:52:24  -195.264414c -6.11  -4.98c
iter:  68 01:54:22  -195.264413c -6.16  -4.96c
iter:  69 01:56:23  -195.264413c -6.20  -4.92c
Writing to output.gpw (mode='')

iter:  70 01:58:31  -195.264413c -6.25  -4.89c
iter:  71 02:00:27  -195.264415c -6.23  -4.87c
iter:  72 02:02:22  -195.264415c -6.26  -4.88c
iter:  73 02:04:26  -195.264412c -6.25  -4.74c
iter:  74 02:06:23  -195.264413c -6.14  -4.74c
Writing to output.gpw (mode='')

iter:  75 02:08:25  -195.264414c -6.22  -4.80c
iter:  76 02:10:22  -195.264417c -6.12  -4.82c
iter:  77 02:12:15  -195.264418c -6.12  -4.91c
iter:  78 02:14:09  -195.264411c -5.90  -5.02c
iter:  79 02:16:10  -195.264411c -6.07  -4.99c
Writing to output.gpw (mode='')

iter:  80 02:18:15  -195.264411c -6.36  -5.30c
iter:  81 02:20:16  -195.264412c -6.54  -5.38c
iter:  82 02:22:17  -195.264412c -6.67  -5.38c
iter:  83 02:24:18  -195.264412c -6.78  -5.41c
iter:  84 02:26:12  -195.264412c -6.81  -5.44c
Writing to output.gpw (mode='')

iter:  85 02:28:15  -195.264412c -6.88  -5.43c
iter:  86 02:30:16  -195.264412c -6.92  -5.41c
iter:  87 02:32:14  -195.264413c -6.93  -5.29c
iter:  88 02:34:14  -195.264413c -7.02  -5.24c
iter:  89 02:36:16  -195.264413c -7.07  -5.22c
Writing to output.gpw (mode='')

iter:  90 02:38:17  -195.264412c -7.13  -5.46c
iter:  91 02:40:19  -195.264412c -7.18  -5.50c
iter:  92 02:42:23  -195.264412c -7.15  -5.52c
iter:  93 02:44:20  -195.264412c -7.19  -5.45c
iter:  94 02:46:14  -195.264413c -7.29  -5.48c
Writing to output.gpw (mode='')

iter:  95 02:48:04  -195.264414c -7.23  -5.39c
iter:  96 02:49:56  -195.264413c -7.01  -5.09c
iter:  97 02:51:55  -195.264413c -6.92  -5.57c
iter:  98 02:54:04  -195.264413c -7.27  -5.46c
iter:  99 02:56:12  -195.264413c -7.27  -5.41c
Writing to output.gpw (mode='')

iter: 100 02:58:17  -195.264413c -7.50c -5.83c

Converged after 100 iterations.

Dipole moment: (-2.797735, -2.797735, -0.000001) |e|*Ang

Energy contributions relative to reference atoms: (reference = -7300.361529)

Kinetic:        +49.148619
Potential:      -45.741814
External:        +0.000000
XC:            -198.434036
Entropy (-ST):   -0.165411
Local:           -0.154476
--------------------------
Free energy:   -195.347118
Extrapolated:  -195.264413

Dipole-layer corrected work functions: 3.106134, 3.106137 eV

 Band  Eigenvalues  Occupancy
    0     -6.33923    2.00000
    1     -5.73023    2.00000
    2     -5.73023    2.00000
    3     -5.50001    2.00000
    4     -5.11554    2.00000
    5     -4.89702    2.00000
    6     -4.89702    2.00000
    7     -4.51746    2.00000
    8     -4.51746    2.00000
    9     -4.27648    2.00000
   10     -4.19489    2.00000
   11     -3.90118    2.00000
   12     -3.90118    2.00000
   13     -3.76277    2.00000
   14     -3.76277    2.00000
   15     -3.59268    1.99988
   16     -3.59268    1.99988
   17     -3.10069    0.94561
   18     -3.10069    0.94559
   19     -2.94593    0.07803
   20     -2.83468    0.00874
   21     -2.83151    0.00820
   22     -2.83151    0.00820
   23     -2.76034    0.00198
   24     -2.76034    0.00198
   25     -2.75854    0.00191

Fermi level: -3.10614

Gap: 0.492 eV
Transition (v -> c):
  (s=0, k=0, n=16, [0.25, 0.25, 0.00]) -> (s=0, k=0, n=17, [0.25, 0.25, 0.00])

Forces in eV/Ang:
  0 Li    0.00000    0.00000    0.04474
  1 Li    0.00000    0.00001    0.04474
  2 Li   -0.00000    0.00000    0.04474
  3 Li    0.00001    0.00000    0.04474
  4 Li    0.00000    0.00000    0.04473
  5 Li   -0.00001    0.00000    0.04474
  6 Li    0.00000   -0.00000    0.04474
  7 Li    0.00000   -0.00001    0.04474
  8 Li   -0.00000   -0.00000    0.04474
  9 Li    0.00000    0.00000   -0.04550
 10 Li    0.00000    0.00000   -0.04550
 11 Li   -0.00000    0.00000   -0.04550
 12 Li    0.00000    0.00000   -0.04550
 13 Li   -0.00000   -0.00000   -0.04550
 14 Li    0.00000   -0.00000   -0.04550
 15 Li    0.00000   -0.00000   -0.04550
 16 Li   -0.00000    0.00000   -0.04550
 17 Li    0.00000    0.00000   -0.04550
 18 Li    0.00000    0.00000    0.04550
 19 Li    0.00000    0.00000    0.04550
 20 Li   -0.00000    0.00000    0.04550
 21 Li    0.00000    0.00000    0.04550
 22 Li    0.00000    0.00000    0.04550
 23 Li   -0.00000    0.00000    0.04550
 24 Li    0.00000   -0.00000    0.04550
 25 Li    0.00000   -0.00000    0.04550
 26 Li   -0.00000   -0.00000    0.04550
 27 Li    0.00000    0.00000   -0.04472
 28 Li   -0.00001    0.00000   -0.04474
 29 Li    0.00001    0.00000   -0.04474
 30 Li    0.00000   -0.00001   -0.04474
 31 Li   -0.00000   -0.00000   -0.04473
 32 Li    0.00000   -0.00000   -0.04473
 33 Li    0.00000    0.00001   -0.04474
 34 Li   -0.00000    0.00000   -0.04473
 35 Li    0.00000    0.00000   -0.04473

Timing:                              incl.     excl.
-----------------------------------------------------------
Forces:                              0.946     0.946   0.0% |
Hamiltonian:                       105.265     0.000   0.0% |
 Atomic:                             0.210     0.022   0.0% |
  XC Correction:                     0.188     0.188   0.0% |
 Calculate atomic Hamiltonians:      0.230     0.230   0.0% |
 Communicate:                        0.228     0.228   0.0% |
 Hartree integrate/restrict:         0.217     0.217   0.0% |
 Poisson:                            1.103     0.265   0.0% |
  Communicate from 1D:               0.171     0.171   0.0% |
  Communicate from 2D:               0.109     0.109   0.0% |
  Communicate to 1D:                 0.062     0.062   0.0% |
  Communicate to 2D:                 0.398     0.398   0.0% |
  FFT 1D:                            0.069     0.069   0.0% |
  FFT 2D:                            0.030     0.030   0.0% |
 XC 3D grid:                       103.274     2.880   0.0% |
  VdW-DF integral:                 100.394     0.181   0.0% |
   Convolution:                      6.139     6.139   0.1% |
   FFT:                              0.794     0.794   0.0% |
   gather:                          68.410    68.410   0.6% |
   hmm1:                             0.866     0.866   0.0% |
   hmm2:                             1.389     1.389   0.0% |
   iFFT:                             0.959     0.959   0.0% |
   potential:                        8.190     0.046   0.0% |
    collect:                         1.822     1.822   0.0% |
    p1:                              3.340     3.340   0.0% |
    p2:                              1.849     1.849   0.0% |
    sum:                             1.132     1.132   0.0% |
   splines:                         13.466    13.466   0.1% |
 vbar:                               0.002     0.002   0.0% |
LCAO initialization:                 1.792     0.027   0.0% |
 LCAO eigensolver:                   0.615     0.001   0.0% |
  Calculate projections:             0.000     0.000   0.0% |
  DenseAtomicCorrection:             0.000     0.000   0.0% |
  Distribute overlap matrix:         0.485     0.485   0.0% |
  Orbital Layouts:                   0.129     0.129   0.0% |
  Potential matrix:                  0.000     0.000   0.0% |
  Sum over cells:                    0.001     0.001   0.0% |
 LCAO to grid:                       0.533     0.533   0.0% |
 Set positions (LCAO WFS):           0.617     0.408   0.0% |
  Basic WFS set positions:           0.022     0.022   0.0% |
  Basis functions set positions:     0.001     0.001   0.0% |
  P tci:                             0.001     0.001   0.0% |
  ST tci:                            0.050     0.050   0.0% |
  mktci:                             0.137     0.137   0.0% |
Redistribute:                        0.002     0.002   0.0% |
SCF-cycle:                       11608.066    28.853   0.2% |
 Davidson:                        1841.388  1463.105  12.5% |----|
  Apply hamiltonian:                52.589    52.589   0.4% |
  Subspace diag:                    82.508     0.016   0.0% |
   calc_h_matrix:                   56.834     6.392   0.1% |
    Apply hamiltonian:              50.443    50.443   0.4% |
   diagonalize:                     12.278    12.278   0.1% |
   rotate_psi:                      13.380    13.380   0.1% |
  calc. matrices:                  211.360    80.890   0.7% |
   Apply hamiltonian:              130.470   130.470   1.1% |
  diagonalize:                       0.550     0.550   0.0% |
  rotate_psi:                       31.276    31.276   0.3% |
 Density:                          132.403     0.004   0.0% |
  Atomic density matrices:           1.049     1.049   0.0% |
  Mix:                              31.663    31.663   0.3% |
  Multipole moments:                 1.964     1.964   0.0% |
  Pseudo density:                   97.723     1.414   0.0% |
   Symmetrize density:              96.309    96.309   0.8% |
 Hamiltonian:                     9604.961     0.024   0.0% |
  Atomic:                           15.212     0.399   0.0% |
   XC Correction:                   14.813    14.813   0.1% |
  Calculate atomic Hamiltonians:    12.147    12.147   0.1% |
  Communicate:                      27.805    27.805   0.2% |
  Hartree integrate/restrict:        7.798     7.798   0.1% |
  Poisson:                          81.990    25.943   0.2% |
   Communicate from 1D:             12.656    12.656   0.1% |
   Communicate from 2D:             13.708    13.708   0.1% |
   Communicate to 1D:                6.748     6.748   0.1% |
   Communicate to 2D:               14.335    14.335   0.1% |
   FFT 1D:                           4.897     4.897   0.0% |
   FFT 2D:                           3.702     3.702   0.0% |
  XC 3D grid:                     9459.697   305.581   2.6% ||
   VdW-DF integral:               9154.116    21.033   0.2% |
    Convolution:                   554.726   554.726   4.7% |-|
    FFT:                           102.775   102.775   0.9% |
    gather:                       7318.295  7318.295  62.4% |------------------------|
    hmm1:                           97.628    97.628   0.8% |
    hmm2:                          135.508   135.508   1.2% |
    iFFT:                           99.732    99.732   0.8% |
    potential:                     824.418     4.173   0.0% |
     collect:                      178.841   178.841   1.5% ||
     p1:                           289.595   289.595   2.5% ||
     p2:                           187.688   187.688   1.6% ||
     sum:                          164.122   164.122   1.4% ||
    splines:                         0.001     0.001   0.0% |
  vbar:                              0.288     0.288   0.0% |
 Orthonormalize:                     0.462     0.000   0.0% |
  calc_s_matrix:                     0.032     0.032   0.0% |
  inverse-cholesky:                  0.348     0.348   0.0% |
  projections:                       0.000     0.000   0.0% |
  rotate_psi_s:                      0.082     0.082   0.0% |
Set symmetry:                        0.022     0.022   0.0% |
Other:                              20.610    20.610   0.2% |
-----------------------------------------------------------
Total:                                     11736.701 100.0%

Memory usage: 971.85 MiB
Date: Sun Jan 29 02:58:19 2023
