
  ___ ___ ___ _ _ _  
 |   |   |_  | | | | 
 | | | | | . | | | | 
 |__ |  _|___|_____|  22.8.0
 |___|_|             

User:   vazumah@c02.hercules
Date:   Sun Jan 22 12:38:27 2023
Arch:   x86_64
Pid:    11059
CWD:    /home/vazumah/Python_projects/LiNRR/autocad_start/slab_experiments/free_slabs/Rb/bcc111/substrate
Python: 3.10.8
gpaw:   /home/vazumah/.conda/envs/GPAW/lib/python3.10/site-packages/gpaw
_gpaw:  /home/vazumah/.conda/envs/GPAW/lib/python3.10/site-packages/
        _gpaw.cpython-310-x86_64-linux-gnu.so
ase:    /home/vazumah/.conda/envs/GPAW/lib/python3.10/site-packages/ase (version 3.22.1)
numpy:  /home/vazumah/.conda/envs/GPAW/lib/python3.10/site-packages/numpy (version 1.24.1)
scipy:  /home/vazumah/.conda/envs/GPAW/lib/python3.10/site-packages/scipy (version 1.10.0)
libxc:  5.2.3
units:  Angstrom and eV
cores: 24
OpenMP: True
OMP_NUM_THREADS: 1

Input parameters:
  eigensolver: {name: dav,
                niter: 3}
  h: 0.16
  kpts: {size: [2, 2, 1]}
  maxiter: 999
  mixer: {backend: pulay,
          beta: 0.02,
          method: separate,
          nmaxold: 5,
          weight: 100}
  occupations: {name: fermi-dirac,
                width: 0.05}
  poissonsolver: {dipolelayer: xy}
  xc: BEEF-vdW

System changes: positions, numbers, cell, pbc, initial_charges, initial_magmoms 

Initialize ...

species:
  Rb:
    name: Rubidium
    id: f3ee551b8c21dced9198efb7d29049b4
    Z: 37.0
    valence: 9
    core: 28
    charge: 0.0
    file: /home/vazumah/.conda/envs/GPAW/share/gpaw/Rb.PBE.gz
    compensation charges: {type: gauss,
                           rc: 0.38,
                           lmax: 2}
    cutoffs: {filter: 2.43,
              core: 1.99}
    valence states:
      #              energy  rcut
      - 4s(2.00)   -31.879   1.376
      - 5s(1.00)    -2.231   1.376
      - 4p(6.00)   -15.966   1.270
      -  p          11.245   1.270
      -  d           0.000   1.217
  
    # Using partial waves for Rb as LCAO basis

Reference energy: -2919720.687235  # eV

Spin-paired calculation

Convergence criteria:
 Maximum [total energy] change in last 3 cyles: 0.0005 eV / electron
 Maximum integral of absolute [dens]ity change: 0.0001 electrons / valence electron
 Maximum integral of absolute [eigenst]ate change: 4e-08 eV^2 / valence electron
 Maximum number of scf [iter]ations: 999
 (Square brackets indicate name in SCF output, whereas a 'c' in
 the SCF output indicates the quantity has converged.)

Symmetries present (total): 12

  ( 1  0  0)  ( 1  0  0)  ( 1 -1  0)  ( 1 -1  0)  ( 0  1  0)  ( 0  1  0)
  ( 1 -1  0)  ( 0  1  0)  ( 1  0  0)  ( 0 -1  0)  ( 1  0  0)  (-1  1  0)
  ( 0  0 -1)  ( 0  0  1)  ( 0  0 -1)  ( 0  0  1)  ( 0  0  1)  ( 0  0 -1)

  ( 0 -1  0)  ( 0 -1  0)  (-1  1  0)  (-1  1  0)  (-1  0  0)  (-1  0  0)
  ( 1 -1  0)  (-1  0  0)  ( 0  1  0)  (-1  0  0)  ( 0 -1  0)  (-1  1  0)
  ( 0  0  1)  ( 0  0 -1)  ( 0  0 -1)  ( 0  0  1)  ( 0  0 -1)  ( 0  0  1)
Note: your k-points are not as symmetric as your crystal!

4 k-points: 2 x 2 x 1 Monkhorst-Pack grid
2 k-points in the irreducible part of the Brillouin zone
       k-points in crystal coordinates                weights
   0:     0.25000000   -0.25000000    0.00000000          2/4
   1:     0.25000000    0.25000000    0.00000000          2/4

Wave functions: Uniform real-space grid
  Kinetic energy operator: 8*3+1=25 point O(h^6) finite-difference Laplacian
  ScaLapack parameters: grid=1x1, blocksize=None
  Wavefunction extrapolation:
    Improved wavefunction reuse through dual PAW basis 

Occupation numbers: Fermi-Dirac:
  width: 0.0500  # eV
 

Eigensolver
   Davidson(niter=3) 

Densities:
  Coarse grid: 128*128*156 grid
  Fine grid: 256*256*312 grid
  Total Charge: 0.000000 

Density mixing:
  Method: separate
  Backend: pulay
  Linear mixing parameter: 0.02
  old densities: 5
  Damping of long wavelength oscillations: 100 

Hamiltonian:
  XC and Coulomb potentials evaluated on a 256*256*312 grid
  Using the BEEF-vdW Exchange-Correlation functional
  Interpolation: tri-quintic (5. degree polynomial)
  Poisson solver: FastPoissonSolver using
    Stencil: 8*3+1=25 point O(h^6) finite-difference Laplacian
    FFT axes: [0, 1]
    FST axes: [2]

Dipole correction along z-axis 

XC parameters: BEEF-vdW with 2 nearest neighbor stencil

Memory estimate:
  Process memory now: 238.06 MiB
  Calculator: 1290.26 MiB
    Density: 88.29 MiB
      Arrays: 41.81 MiB
      Localized functions: 30.54 MiB
      Mixer: 15.94 MiB
    Hamiltonian: 29.68 MiB
      Arrays: 27.34 MiB
      XC: 0.00 MiB
      Poisson: 0.00 MiB
      vbar: 2.34 MiB
    Wavefunctions: 1172.29 MiB
      Arrays psit_nG: 573.75 MiB
      Eigensolver: 594.64 MiB
      Projections: 0.11 MiB
      Projectors: 3.80 MiB

Total number of cores used: 24
Parallelization over k-points: 2
Domain decomposition: 2 x 2 x 3

Number of atoms: 36
Number of atomic orbitals: 180
Number of bands in calculation: 180
Number of valence electrons: 324
Bands to converge: occupied

... initialized

Initializing position-dependent things.

Density initialized from atomic densities
Creating initial wave functions:
  180 bands from LCAO basis set

                                                                                                
                                                                                                
                                                                                                
                                                                                                
                                                                                                
                                                                                                
                                      Rb                  Rb                 Rb                 
                                   Rb                  Rb                 Rb                    
                                                                                                
                                              Rb                  Rb                 Rb         
                        Rb                  Rb                 Rb                               
                     Rb                  Rb                 Rb                                  
                                                                                                
                                   Rb                  Rb                 Rb                    
          Rb                  RbRb               Rb Rb                 Rb                       
       Rb                  Rb                 Rb                                                
                                                                                                
                     Rb                  Rb                 Rb                                  
                  Rb                  Rb                 Rb                                     
                                                                                                
                                                                                                
       Rb                  Rb                 Rb                                                
                                                                                                
                                                                                                
                                                                                                
                                                                                                

Positions:
   0 Rb     0.000000    0.000000   10.000000    ( 0.0000,  0.0000,  0.0000)
   1 Rb     7.905454    0.000000   10.000000    ( 0.0000,  0.0000,  0.0000)
   2 Rb    15.810908    0.000000   10.000000    ( 0.0000,  0.0000,  0.0000)
   3 Rb     3.952727    6.846324   10.000000    ( 0.0000,  0.0000,  0.0000)
   4 Rb    11.858181    6.846324   10.000000    ( 0.0000,  0.0000,  0.0000)
   5 Rb    19.763635    6.846324   10.000000    ( 0.0000,  0.0000,  0.0000)
   6 Rb     7.905454   13.692648   10.000000    ( 0.0000,  0.0000,  0.0000)
   7 Rb    15.810908   13.692648   10.000000    ( 0.0000,  0.0000,  0.0000)
   8 Rb    23.716361   13.692648   10.000000    ( 0.0000,  0.0000,  0.0000)
   9 Rb     3.952727    2.282108   11.613694    ( 0.0000,  0.0000,  0.0000)
  10 Rb    11.858181    2.282108   11.613694    ( 0.0000,  0.0000,  0.0000)
  11 Rb    19.763635    2.282108   11.613694    ( 0.0000,  0.0000,  0.0000)
  12 Rb     7.905454    9.128432   11.613694    ( 0.0000,  0.0000,  0.0000)
  13 Rb    15.810908    9.128432   11.613694    ( 0.0000,  0.0000,  0.0000)
  14 Rb    23.716361    9.128432   11.613694    ( 0.0000,  0.0000,  0.0000)
  15 Rb    11.858181   15.974756   11.613694    ( 0.0000,  0.0000,  0.0000)
  16 Rb    19.763635   15.974756   11.613694    ( 0.0000,  0.0000,  0.0000)
  17 Rb    27.669088   15.974756   11.613694    ( 0.0000,  0.0000,  0.0000)
  18 Rb     0.000000    4.564216   13.227388    ( 0.0000,  0.0000,  0.0000)
  19 Rb     7.905454    4.564216   13.227388    ( 0.0000,  0.0000,  0.0000)
  20 Rb    15.810908    4.564216   13.227388    ( 0.0000,  0.0000,  0.0000)
  21 Rb     3.952727   11.410540   13.227388    ( 0.0000,  0.0000,  0.0000)
  22 Rb    11.858181   11.410540   13.227388    ( 0.0000,  0.0000,  0.0000)
  23 Rb    19.763635   11.410540   13.227388    ( 0.0000,  0.0000,  0.0000)
  24 Rb     7.905454   18.256864   13.227388    ( 0.0000,  0.0000,  0.0000)
  25 Rb    15.810908   18.256864   13.227388    ( 0.0000,  0.0000,  0.0000)
  26 Rb    23.716361   18.256864   13.227388    ( 0.0000,  0.0000,  0.0000)
  27 Rb     0.000000    0.000000   14.841082    ( 0.0000,  0.0000,  0.0000)
  28 Rb     7.905454    0.000000   14.841082    ( 0.0000,  0.0000,  0.0000)
  29 Rb    15.810908    0.000000   14.841082    ( 0.0000,  0.0000,  0.0000)
  30 Rb     3.952727    6.846324   14.841082    ( 0.0000,  0.0000,  0.0000)
  31 Rb    11.858181    6.846324   14.841082    ( 0.0000,  0.0000,  0.0000)
  32 Rb    19.763635    6.846324   14.841082    ( 0.0000,  0.0000,  0.0000)
  33 Rb     7.905454   13.692648   14.841082    ( 0.0000,  0.0000,  0.0000)
  34 Rb    15.810908   13.692648   14.841082    ( 0.0000,  0.0000,  0.0000)
  35 Rb    23.716361   13.692648   14.841082    ( 0.0000,  0.0000,  0.0000)

Unit cell:
           periodic     x           y           z      points  spacing
  1. axis:    yes   23.716361    0.000000    0.000000   128     0.1605
  2. axis:    yes   11.858181   20.538971    0.000000   128     0.1605
  3. axis:    no     0.000000    0.000000   24.841082   156     0.1592

  Lengths:  23.716361  23.716361  24.841082
  Angles:   90.000000  90.000000  60.000000

Effective grid spacing dv^(1/3) = 0.1679

     iter     time        total  log10-change:
                         energy  eigst   dens
iter:   1 13:00:09 -3704.417727
