
  ___ ___ ___ _ _ _  
 |   |   |_  | | | | 
 | | | | | . | | | | 
 |__ |  _|___|_____|  22.8.0
 |___|_|             

User:   vazumah@c03.hercules
Date:   Tue Jan 17 05:18:26 2023
Arch:   x86_64
Pid:    32719
CWD:    /home/vazumah/Python_projects/LiNRR/autocad_start/bulk_relaxations/Cs_bulk_bcc
Python: 3.10.8
gpaw:   /home/vazumah/.conda/envs/GPAW/lib/python3.10/site-packages/gpaw
_gpaw:  /home/vazumah/.conda/envs/GPAW/lib/python3.10/site-packages/
        _gpaw.cpython-310-x86_64-linux-gnu.so
ase:    /home/vazumah/.conda/envs/GPAW/lib/python3.10/site-packages/ase (version 3.22.1)
numpy:  /home/vazumah/.conda/envs/GPAW/lib/python3.10/site-packages/numpy (version 1.24.1)
scipy:  /home/vazumah/.conda/envs/GPAW/lib/python3.10/site-packages/scipy (version 1.10.0)
libxc:  5.2.3
units:  Angstrom and eV
cores: 24
OpenMP: True
OMP_NUM_THREADS: 1

Input parameters:
  h: 0.16
  kpts: {size: [2, 2, 1]}
  occupations: {name: fermi-dirac,
                width: 0.05}
  xc: BEEF-vdW

System changes: positions, numbers, cell, pbc, initial_charges, initial_magmoms 

Initialize ...

species:
  Cs:
    name: Caesium
    id: fa822afd343f47335d508b9ee4f394c3
    Z: 55.0
    valence: 9
    core: 46
    charge: 0.0
    file: /home/vazumah/.conda/envs/GPAW/share/gpaw/Cs.PBE.gz
    compensation charges: {type: gauss,
                           rc: 0.33,
                           lmax: 2}
    cutoffs: {filter: 2.06,
              core: 2.51}
    valence states:
      #              energy  rcut
      - 5s(2.00)   -26.706   1.164
      - 6s(1.00)    -2.085   1.164
      - 5p(6.00)   -13.523   1.058
      -  p          13.688   1.058
      -  d           0.000   1.058
  
    # Using partial waves for Cs as LCAO basis

Reference energy: -211800.076486  # eV

Spin-paired calculation

Convergence criteria:
 Maximum [total energy] change in last 3 cyles: 0.0005 eV / electron
 Maximum integral of absolute [dens]ity change: 0.0001 electrons / valence electron
 Maximum integral of absolute [eigenst]ate change: 4e-08 eV^2 / valence electron
 Maximum number of scf [iter]ations: 333
 (Square brackets indicate name in SCF output, whereas a 'c' in
 the SCF output indicates the quantity has converged.)

Symmetries present (total): 48

  ( 1  1  1)  ( 1  1  1)  ( 1  1  1)  ( 1  1  1)  ( 1  1  1)  ( 1  1  1)
  ( 0  0 -1)  ( 0  0 -1)  ( 0 -1  0)  ( 0 -1  0)  (-1  0  0)  (-1  0  0)
  ( 0 -1  0)  (-1  0  0)  ( 0  0 -1)  (-1  0  0)  ( 0  0 -1)  ( 0 -1  0)

  ( 1  0  0)  ( 1  0  0)  ( 1  0  0)  ( 1  0  0)  ( 1  0  0)  ( 1  0  0)
  ( 0  1  0)  ( 0  1  0)  ( 0  0  1)  ( 0  0  1)  (-1 -1 -1)  (-1 -1 -1)
  ( 0  0  1)  (-1 -1 -1)  ( 0  1  0)  (-1 -1 -1)  ( 0  1  0)  ( 0  0  1)

  ( 0  1  0)  ( 0  1  0)  ( 0  1  0)  ( 0  1  0)  ( 0  1  0)  ( 0  1  0)
  ( 1  0  0)  ( 1  0  0)  ( 0  0  1)  ( 0  0  1)  (-1 -1 -1)  (-1 -1 -1)
  ( 0  0  1)  (-1 -1 -1)  ( 1  0  0)  (-1 -1 -1)  ( 1  0  0)  ( 0  0  1)

  ( 0  0  1)  ( 0  0  1)  ( 0  0  1)  ( 0  0  1)  ( 0  0  1)  ( 0  0  1)
  ( 1  0  0)  ( 1  0  0)  ( 0  1  0)  ( 0  1  0)  (-1 -1 -1)  (-1 -1 -1)
  ( 0  1  0)  (-1 -1 -1)  ( 1  0  0)  (-1 -1 -1)  ( 1  0  0)  ( 0  1  0)

  ( 0  0 -1)  ( 0  0 -1)  ( 0  0 -1)  ( 0  0 -1)  ( 0  0 -1)  ( 0  0 -1)
  ( 1  1  1)  ( 1  1  1)  ( 0 -1  0)  ( 0 -1  0)  (-1  0  0)  (-1  0  0)
  ( 0 -1  0)  (-1  0  0)  ( 1  1  1)  (-1  0  0)  ( 1  1  1)  ( 0 -1  0)

  ( 0 -1  0)  ( 0 -1  0)  ( 0 -1  0)  ( 0 -1  0)  ( 0 -1  0)  ( 0 -1  0)
  ( 1  1  1)  ( 1  1  1)  ( 0  0 -1)  ( 0  0 -1)  (-1  0  0)  (-1  0  0)
  ( 0  0 -1)  (-1  0  0)  ( 1  1  1)  (-1  0  0)  ( 1  1  1)  ( 0  0 -1)

  (-1  0  0)  (-1  0  0)  (-1  0  0)  (-1  0  0)  (-1  0  0)  (-1  0  0)
  ( 1  1  1)  ( 1  1  1)  ( 0  0 -1)  ( 0  0 -1)  ( 0 -1  0)  ( 0 -1  0)
  ( 0  0 -1)  ( 0 -1  0)  ( 1  1  1)  ( 0 -1  0)  ( 1  1  1)  ( 0  0 -1)

  (-1 -1 -1)  (-1 -1 -1)  (-1 -1 -1)  (-1 -1 -1)  (-1 -1 -1)  (-1 -1 -1)
  ( 1  0  0)  ( 1  0  0)  ( 0  1  0)  ( 0  1  0)  ( 0  0  1)  ( 0  0  1)
  ( 0  1  0)  ( 0  0  1)  ( 1  0  0)  ( 0  0  1)  ( 1  0  0)  ( 0  1  0)
Note: your k-points are not as symmetric as your crystal!

4 k-points: 2 x 2 x 1 Monkhorst-Pack grid
2 k-points in the irreducible part of the Brillouin zone
       k-points in crystal coordinates                weights
   0:     0.25000000   -0.25000000    0.00000000          2/4
   1:     0.25000000    0.25000000    0.00000000          2/4

Wave functions: Uniform real-space grid
  Kinetic energy operator: 8*3+1=25 point O(h^6) finite-difference Laplacian
  ScaLapack parameters: grid=1x1, blocksize=None
  Wavefunction extrapolation:
    Improved wavefunction reuse through dual PAW basis 

Occupation numbers: Fermi-Dirac:
  width: 0.0500  # eV
 

Eigensolver
   Davidson(niter=2) 

Densities:
  Coarse grid: 28*28*28 grid
  Fine grid: 56*56*56 grid
  Total Charge: 0.000000 

Density mixing:
  Method: separate
  Backend: pulay
  Linear mixing parameter: 0.05
  old densities: 5
  Damping of long wavelength oscillations: 50 

Hamiltonian:
  XC and Coulomb potentials evaluated on a 56*56*56 grid
  Using the BEEF-vdW Exchange-Correlation functional
  Interpolation: tri-quintic (5. degree polynomial)
  Poisson solver: FastPoissonSolver using
    Stencil: 8*3+1=25 point O(h^6) finite-difference Laplacian
    FFT axes: [0, 1, 2]
    FST axes: []
 

XC parameters: BEEF-vdW with 2 nearest neighbor stencil

Memory estimate:
  Process memory now: 84.36 MiB
  Calculator: 1.80 MiB
    Density: 1.01 MiB
      Arrays: 0.37 MiB
      Localized functions: 0.49 MiB
      Mixer: 0.15 MiB
    Hamiltonian: 0.28 MiB
      Arrays: 0.24 MiB
      XC: 0.00 MiB
      Poisson: 0.00 MiB
      vbar: 0.04 MiB
    Wavefunctions: 0.51 MiB
      Arrays psit_nG: 0.15 MiB
      Eigensolver: 0.30 MiB
      Projections: 0.00 MiB
      Projectors: 0.06 MiB

Total number of cores used: 24
Parallelization over k-points: 2
Domain decomposition: 3 x 2 x 2

Number of atoms: 1
Number of atomic orbitals: 5
Number of bands in calculation: 5
Number of valence electrons: 9
Bands to converge: occupied

... initialized

Initializing position-dependent things.

Density initialized from atomic densities
Creating initial wave functions:
  5 bands from LCAO basis set

                
                
                
       Cs       
                
                
                
                

Positions:
   0 Cs     0.000000    0.000000    0.000000    ( 0.0000,  0.0000,  0.0000)

Unit cell:
           periodic     x           y           z      points  spacing
  1. axis:    yes   -3.025000    3.025000    3.025000    28     0.1528
  2. axis:    yes    3.025000   -3.025000    3.025000    28     0.1528
  3. axis:    yes    3.025000    3.025000   -3.025000    28     0.1528

  Lengths:   5.239454   5.239454   5.239454
  Angles:  109.471221 109.471221 109.471221

Effective grid spacing dv^(1/3) = 0.1715

     iter     time        total  log10-change:
                         energy  eigst   dens
iter:   1 05:19:12  -184.130292
iter:   2 05:19:42  -184.113282  -0.19  -1.08
iter:   3 05:20:16  -183.972896  +0.01  -1.11
iter:   4 05:20:49  -183.881914  -0.41  -1.29
Writing to output.gpw (mode='')

iter:   5 05:21:21  -183.890947  -1.18  -1.57
iter:   6 05:21:53  -183.886970  -1.29  -1.46
iter:   7 05:22:29  -183.903054  -1.31  -1.74
iter:   8 05:23:02  -183.893740  -1.12  -1.62
iter:   9 05:23:34  -183.893077  -1.43  -2.04
Writing to output.gpw (mode='')

iter:  10 05:24:05  -183.892138c -2.13  -2.25
iter:  11 05:24:34  -183.892094c -2.38  -2.31
iter:  12 05:25:05  -183.892174c -2.80  -2.61
iter:  13 05:25:37  -183.892196c -3.00  -2.57
iter:  14 05:26:05  -183.892126c -2.92  -2.52
Writing to output.gpw (mode='')

iter:  15 05:26:35  -183.892111c -3.35  -2.80
iter:  16 05:27:07  -183.892104c -3.46  -3.09
iter:  17 05:27:36  -183.892108c -3.72  -4.07c
iter:  18 05:28:06  -183.892111c -3.91  -4.10c
iter:  19 05:28:35  -183.892113c -4.05  -4.13c
Writing to output.gpw (mode='')

iter:  20 05:29:03  -183.892115c -4.23  -4.13c
iter:  21 05:29:31  -183.892115c -4.39  -4.03c
iter:  22 05:30:00  -183.892116c -4.55  -4.09c
iter:  23 05:30:28  -183.892117c -4.72  -4.16c
iter:  24 05:30:57  -183.892117c -4.88  -4.27c
Writing to output.gpw (mode='')

iter:  25 05:31:29  -183.892117c -5.03  -4.24c
iter:  26 05:32:02  -183.892118c -5.20  -5.22c
iter:  27 05:32:30  -183.892118c -5.35  -5.28c
iter:  28 05:33:00  -183.892118c -5.49  -5.34c
iter:  29 05:33:30  -183.892118c -5.66  -4.94c
Writing to output.gpw (mode='')

iter:  30 05:34:02  -183.892118c -5.81  -5.51c
iter:  31 05:34:35  -183.892118c -5.97  -5.55c
iter:  32 05:35:08  -183.892118c -6.11  -5.25c
iter:  33 05:35:39  -183.892118c -6.28  -5.44c
iter:  34 05:36:10  -183.892118c -6.42  -5.61c
Writing to output.gpw (mode='')

iter:  35 05:36:43  -183.892118c -6.60  -5.78c
iter:  36 05:37:15  -183.892118c -6.75  -5.77c
iter:  37 05:37:44  -183.892118c -6.89  -5.84c
iter:  38 05:38:14  -183.892118c -7.06  -5.87c
iter:  39 05:38:45  -183.892118c -7.21  -5.88c
Writing to output.gpw (mode='')

iter:  40 05:39:14  -183.892118c -7.37  -5.88c
iter:  41 05:39:44  -183.892118c -7.51c -5.93c

Converged after 41 iterations.

Dipole moment: (-1.397215, -1.397215, -1.397215) |e|*Ang

Energy contributions relative to reference atoms: (reference = -211800.076486)

Kinetic:         +6.589993
Potential:       -6.282752
External:        +0.000000
XC:            -184.245835
Entropy (-ST):   -0.000027
Local:           +0.046490
--------------------------
Free energy:   -183.892132
Extrapolated:  -183.892118

Showing all kpts
 Kpt  Band  Eigenvalues  Occupancy
  0     2     -8.67937    2.00000
  0     3     -8.65513    2.00000
  0     4      1.07156    1.99995

  1     2     -8.71657    2.00000
  1     3     -8.67016    2.00000
  1     4      2.13844    0.00005


Fermi level: 1.60500

No gap
Writing to output.gpw (mode='')


Forces in eV/Ang:
  0 Cs    0.00000   -0.00000    0.00000

Timing:                              incl.     excl.
-----------------------------------------------------------
Forces:                              0.088     0.088   0.0% |
Hamiltonian:                        40.197     0.000   0.0% |
 Atomic:                             0.385     0.385   0.0% |
  XC Correction:                     0.000     0.000   0.0% |
 Calculate atomic Hamiltonians:      0.026     0.026   0.0% |
 Communicate:                        0.023     0.023   0.0% |
 Hartree integrate/restrict:         0.098     0.098   0.0% |
 Initialize Hamiltonian:             0.000     0.000   0.0% |
 Poisson:                            0.192     0.021   0.0% |
  Communicate from 1D:               0.040     0.040   0.0% |
  Communicate from 2D:               0.063     0.063   0.0% |
  Communicate to 1D:                 0.022     0.022   0.0% |
  Communicate to 2D:                 0.044     0.044   0.0% |
  FFT 1D:                            0.001     0.001   0.0% |
  FFT 2D:                            0.001     0.001   0.0% |
 XC 3D grid:                        39.472     0.508   0.0% |
  VdW-DF integral:                  38.964     0.022   0.0% |
   Convolution:                      0.077     0.077   0.0% |
   FFT:                              0.009     0.009   0.0% |
   gather:                          28.165    28.165   2.2% ||
   hmm1:                             0.017     0.017   0.0% |
   hmm2:                             0.016     0.016   0.0% |
   iFFT:                             0.036     0.036   0.0% |
   potential:                        0.676     0.003   0.0% |
    collect:                         0.163     0.163   0.0% |
    p1:                              0.065     0.065   0.0% |
    p2:                              0.042     0.042   0.0% |
    sum:                             0.403     0.403   0.0% |
   splines:                          9.945     9.945   0.8% |
 vbar:                               0.000     0.000   0.0% |
LCAO initialization:                 0.313     0.111   0.0% |
 LCAO eigensolver:                   0.080     0.000   0.0% |
  Calculate projections:             0.000     0.000   0.0% |
  DenseAtomicCorrection:             0.000     0.000   0.0% |
  Distribute overlap matrix:         0.007     0.007   0.0% |
  Orbital Layouts:                   0.070     0.070   0.0% |
  Potential matrix:                  0.001     0.001   0.0% |
  Sum over cells:                    0.000     0.000   0.0% |
 LCAO to grid:                       0.001     0.001   0.0% |
 Set positions (LCAO WFS):           0.121     0.077   0.0% |
  Basic WFS set positions:           0.005     0.005   0.0% |
  Basis functions set positions:     0.000     0.000   0.0% |
  P tci:                             0.012     0.012   0.0% |
  ST tci:                            0.006     0.006   0.0% |
  mktci:                             0.021     0.021   0.0% |
SCF-cycle:                        1234.403    16.094   1.3% ||
 Davidson:                          93.647    61.258   4.8% |-|
  Apply hamiltonian:                 6.999     6.999   0.5% |
  Subspace diag:                     8.789     0.006   0.0% |
   calc_h_matrix:                    7.419     0.056   0.0% |
    Apply hamiltonian:               7.363     7.363   0.6% |
   diagonalize:                      1.339     1.339   0.1% |
   rotate_psi:                       0.024     0.024   0.0% |
  calc. matrices:                   15.127     3.171   0.2% |
   Apply hamiltonian:               11.956    11.956   0.9% |
  diagonalize:                       0.020     0.020   0.0% |
  rotate_psi:                        1.455     1.455   0.1% |
 Density:                           19.225     0.001   0.0% |
  Atomic density matrices:           1.107     1.107   0.1% |
  Mix:                               7.391     7.391   0.6% |
  Multipole moments:                 0.190     0.190   0.0% |
  Pseudo density:                   10.534     0.154   0.0% |
   Symmetrize density:              10.380    10.380   0.8% |
 Hamiltonian:                     1105.375     0.005   0.0% |
  Atomic:                           15.883    15.883   1.2% |
   XC Correction:                    0.000     0.000   0.0% |
  Calculate atomic Hamiltonians:     1.204     1.204   0.1% |
  Communicate:                       0.537     0.537   0.0% |
  Hartree integrate/restrict:        1.554     1.554   0.1% |
  Poisson:                           6.510     0.591   0.0% |
   Communicate from 1D:              1.473     1.473   0.1% |
   Communicate from 2D:              1.783     1.783   0.1% |
   Communicate to 1D:                1.109     1.109   0.1% |
   Communicate to 2D:                1.453     1.453   0.1% |
   FFT 1D:                           0.034     0.034   0.0% |
   FFT 2D:                           0.069     0.069   0.0% |
  XC 3D grid:                     1079.674    25.229   2.0% ||
   VdW-DF integral:               1054.445     0.325   0.0% |
    Convolution:                     3.478     3.478   0.3% |
    FFT:                             0.539     0.539   0.0% |
    gather:                       1020.948  1020.948  79.8% |-------------------------------|
    hmm1:                            1.120     1.120   0.1% |
    hmm2:                            1.414     1.414   0.1% |
    iFFT:                            0.592     0.592   0.0% |
    potential:                      26.029     0.209   0.0% |
     collect:                        8.983     8.983   0.7% |
     p1:                             3.901     3.901   0.3% |
     p2:                             1.647     1.647   0.1% |
     sum:                           11.290    11.290   0.9% |
    splines:                         0.000     0.000   0.0% |
  vbar:                              0.007     0.007   0.0% |
 Orthonormalize:                     0.061     0.000   0.0% |
  calc_s_matrix:                     0.000     0.000   0.0% |
  inverse-cholesky:                  0.018     0.018   0.0% |
  projections:                       0.042     0.042   0.0% |
  rotate_psi_s:                      0.000     0.000   0.0% |
Set symmetry:                        0.030     0.030   0.0% |
Other:                               4.155     4.155   0.3% |
-----------------------------------------------------------
Total:                                      1279.186 100.0%

Memory usage: 137.50 MiB
Date: Tue Jan 17 05:39:46 2023
