
  ___ ___ ___ _ _ _  
 |   |   |_  | | | | 
 | | | | | . | | | | 
 |__ |  _|___|_____|  22.8.0
 |___|_|             

User:   vazumah@c14.hercules
Date:   Thu Jan 19 01:08:24 2023
Arch:   x86_64
Pid:    16546
CWD:    /home/vazumah/Python_projects/LiNRR/autocad_start/slab_experiments/free_slabs/Rb/bcc100/substrate
Python: 3.10.8
gpaw:   /home/vazumah/.conda/envs/GPAW/lib/python3.10/site-packages/gpaw
_gpaw:  /home/vazumah/.conda/envs/GPAW/lib/python3.10/site-packages/
        _gpaw.cpython-310-x86_64-linux-gnu.so
ase:    /home/vazumah/.conda/envs/GPAW/lib/python3.10/site-packages/ase (version 3.22.1)
numpy:  /home/vazumah/.conda/envs/GPAW/lib/python3.10/site-packages/numpy (version 1.24.1)
scipy:  /home/vazumah/.conda/envs/GPAW/lib/python3.10/site-packages/scipy (version 1.10.0)
libxc:  5.2.3
units:  Angstrom and eV
cores: 24
OpenMP: True
OMP_NUM_THREADS: 1

Input parameters:
  eigensolver: {name: dav,
                niter: 3}
  h: 0.16
  kpts: {size: [2, 2, 1]}
  maxiter: 999
  mixer: {backend: pulay,
          beta: 0.02,
          method: separate,
          nmaxold: 5,
          weight: 100}
  occupations: {name: fermi-dirac,
                width: 0.05}
  poissonsolver: {dipolelayer: xy}
  xc: BEEF-vdW

System changes: positions, numbers, cell, pbc, initial_charges, initial_magmoms 

Initialize ...

species:
  Rb:
    name: Rubidium
    id: f3ee551b8c21dced9198efb7d29049b4
    Z: 37.0
    valence: 9
    core: 28
    charge: 0.0
    file: /home/vazumah/.conda/envs/GPAW/share/gpaw/Rb.PBE.gz
    compensation charges: {type: gauss,
                           rc: 0.38,
                           lmax: 2}
    cutoffs: {filter: 2.43,
              core: 1.99}
    valence states:
      #              energy  rcut
      - 4s(2.00)   -31.879   1.376
      - 5s(1.00)    -2.231   1.376
      - 4p(6.00)   -15.966   1.270
      -  p          11.245   1.270
      -  d           0.000   1.217
  
    # Using partial waves for Rb as LCAO basis

Reference energy: -2919720.687235  # eV

Spin-paired calculation

Convergence criteria:
 Maximum [total energy] change in last 3 cyles: 0.0005 eV / electron
 Maximum integral of absolute [dens]ity change: 0.0001 electrons / valence electron
 Maximum integral of absolute [eigenst]ate change: 4e-08 eV^2 / valence electron
 Maximum number of scf [iter]ations: 999
 (Square brackets indicate name in SCF output, whereas a 'c' in
 the SCF output indicates the quantity has converged.)

Symmetries present (total): 8

  ( 1  0  0)  ( 1  0  0)  ( 0  1  0)  ( 0  1  0)  ( 0 -1  0)  ( 0 -1  0)
  ( 0  1  0)  ( 0 -1  0)  ( 1  0  0)  (-1  0  0)  ( 1  0  0)  (-1  0  0)
  ( 0  0  1)  ( 0  0  1)  ( 0  0  1)  ( 0  0  1)  ( 0  0  1)  ( 0  0  1)

  (-1  0  0)  (-1  0  0)
  ( 0  1  0)  ( 0 -1  0)
  ( 0  0  1)  ( 0  0  1)

4 k-points: 2 x 2 x 1 Monkhorst-Pack grid
1 k-point in the irreducible part of the Brillouin zone
       k-points in crystal coordinates                weights
   0:     0.25000000    0.25000000    0.00000000          4/4

Wave functions: Uniform real-space grid
  Kinetic energy operator: 6*3+1=19 point O(h^6) finite-difference Laplacian
  ScaLapack parameters: grid=1x1, blocksize=None
  Wavefunction extrapolation:
    Improved wavefunction reuse through dual PAW basis 

Occupation numbers: Fermi-Dirac:
  width: 0.0500  # eV
 

Eigensolver
   Davidson(niter=3) 

Densities:
  Coarse grid: 104*104*176 grid
  Fine grid: 208*208*352 grid
  Total Charge: 0.000000 

Density mixing:
  Method: separate
  Backend: pulay
  Linear mixing parameter: 0.02
  old densities: 5
  Damping of long wavelength oscillations: 100 

Hamiltonian:
  XC and Coulomb potentials evaluated on a 208*208*352 grid
  Using the BEEF-vdW Exchange-Correlation functional
  Interpolation: tri-quintic (5. degree polynomial)
  Poisson solver: FastPoissonSolver using
    Stencil: 6*3+1=19 point O(h^6) finite-difference Laplacian
    FFT axes: [0, 1]
    FST axes: [2]

Dipole correction along z-axis 

XC parameters: BEEF-vdW with 2 nearest neighbor stencil

Memory estimate:
  Process memory now: 137.80 MiB
  Calculator: 493.49 MiB
    Density: 38.90 MiB
      Arrays: 15.69 MiB
      Localized functions: 17.24 MiB
      Mixer: 5.97 MiB
    Hamiltonian: 11.58 MiB
      Arrays: 10.26 MiB
      XC: 0.00 MiB
      Poisson: 0.00 MiB
      vbar: 1.32 MiB
    Wavefunctions: 443.01 MiB
      Arrays psit_nG: 214.95 MiB
      Eigensolver: 225.87 MiB
      Projections: 0.05 MiB
      Projectors: 2.14 MiB

Total number of cores used: 24
Domain decomposition: 2 x 3 x 4

Number of atoms: 36
Number of atomic orbitals: 180
Number of bands in calculation: 180
Number of valence electrons: 324
Bands to converge: occupied

... initialized

Initializing position-dependent things.

Density initialized from atomic densities
Creating initial wave functions:
  180 bands from LCAO basis set

           .----------------------------------------.  
          /|                                        |  
         / |                                        |  
        /  |                                        |  
       /   |                                        |  
      /    |                                        |  
     /     |                                        |  
    /      |                                        |  
   /       |                                        |  
  /        |                                        |  
 *         |                                        |  
 |         |                                        |  
 |         |                                        |  
 |         |                                        |  
 |         |                                        |  
 |         |                                        |  
 |      Rb |         Rb            Rb               |  
 |         |    Rb            Rb           Rb       |  
 |         |                                        |  
 |  Rb     |      Rb            Rb                  |  
 |         |                                        |  
 |         | Rb            Rb           Rb          |  
 Rb        |   Rb           Rb                      |  
 |      Rb |         Rb            Rb               |  
 |        Rb    Rb     Rb     Rb     Rb    Rb       |  
 |         |                                        |  
 |  Rb     |      Rb            Rb                  |  
 |         |                                        |  
 |         | Rb            Rb           Rb          |  
 Rb        |   Rb           Rb                      |  
 |         |                                        |  
 |        Rb           Rb            Rb             |  
 |         |                                        |  
 |         |                                        |  
 |         |                                        |  
 |         .----------------------------------------.  
 |        /                                        /   
 |       /                                        /    
 |      /                                        /     
 |     /                                        /      
 |    /                                        /       
 |   /                                        /        
 |  /                                        /         
 | /                                        /          
 |/                                        /           
 *----------------------------------------*            

Positions:
   0 Rb     2.795000    2.795000   10.000000    ( 0.0000,  0.0000,  0.0000)
   1 Rb     8.385000    2.795000   10.000000    ( 0.0000,  0.0000,  0.0000)
   2 Rb    13.975000    2.795000   10.000000    ( 0.0000,  0.0000,  0.0000)
   3 Rb     2.795000    8.385000   10.000000    ( 0.0000,  0.0000,  0.0000)
   4 Rb     8.385000    8.385000   10.000000    ( 0.0000,  0.0000,  0.0000)
   5 Rb    13.975000    8.385000   10.000000    ( 0.0000,  0.0000,  0.0000)
   6 Rb     2.795000   13.975000   10.000000    ( 0.0000,  0.0000,  0.0000)
   7 Rb     8.385000   13.975000   10.000000    ( 0.0000,  0.0000,  0.0000)
   8 Rb    13.975000   13.975000   10.000000    ( 0.0000,  0.0000,  0.0000)
   9 Rb     0.000000    0.000000   12.795000    ( 0.0000,  0.0000,  0.0000)
  10 Rb     5.590000    0.000000   12.795000    ( 0.0000,  0.0000,  0.0000)
  11 Rb    11.180000    0.000000   12.795000    ( 0.0000,  0.0000,  0.0000)
  12 Rb     0.000000    5.590000   12.795000    ( 0.0000,  0.0000,  0.0000)
  13 Rb     5.590000    5.590000   12.795000    ( 0.0000,  0.0000,  0.0000)
  14 Rb    11.180000    5.590000   12.795000    ( 0.0000,  0.0000,  0.0000)
  15 Rb     0.000000   11.180000   12.795000    ( 0.0000,  0.0000,  0.0000)
  16 Rb     5.590000   11.180000   12.795000    ( 0.0000,  0.0000,  0.0000)
  17 Rb    11.180000   11.180000   12.795000    ( 0.0000,  0.0000,  0.0000)
  18 Rb     2.795000    2.795000   15.590000    ( 0.0000,  0.0000,  0.0000)
  19 Rb     8.385000    2.795000   15.590000    ( 0.0000,  0.0000,  0.0000)
  20 Rb    13.975000    2.795000   15.590000    ( 0.0000,  0.0000,  0.0000)
  21 Rb     2.795000    8.385000   15.590000    ( 0.0000,  0.0000,  0.0000)
  22 Rb     8.385000    8.385000   15.590000    ( 0.0000,  0.0000,  0.0000)
  23 Rb    13.975000    8.385000   15.590000    ( 0.0000,  0.0000,  0.0000)
  24 Rb     2.795000   13.975000   15.590000    ( 0.0000,  0.0000,  0.0000)
  25 Rb     8.385000   13.975000   15.590000    ( 0.0000,  0.0000,  0.0000)
  26 Rb    13.975000   13.975000   15.590000    ( 0.0000,  0.0000,  0.0000)
  27 Rb     0.000000    0.000000   18.385000    ( 0.0000,  0.0000,  0.0000)
  28 Rb     5.590000    0.000000   18.385000    ( 0.0000,  0.0000,  0.0000)
  29 Rb    11.180000    0.000000   18.385000    ( 0.0000,  0.0000,  0.0000)
  30 Rb     0.000000    5.590000   18.385000    ( 0.0000,  0.0000,  0.0000)
  31 Rb     5.590000    5.590000   18.385000    ( 0.0000,  0.0000,  0.0000)
  32 Rb    11.180000    5.590000   18.385000    ( 0.0000,  0.0000,  0.0000)
  33 Rb     0.000000   11.180000   18.385000    ( 0.0000,  0.0000,  0.0000)
  34 Rb     5.590000   11.180000   18.385000    ( 0.0000,  0.0000,  0.0000)
  35 Rb    11.180000   11.180000   18.385000    ( 0.0000,  0.0000,  0.0000)

Unit cell:
           periodic     x           y           z      points  spacing
  1. axis:    yes   16.770000    0.000000    0.000000   104     0.1612
  2. axis:    yes    0.000000   16.770000    0.000000   104     0.1612
  3. axis:    no     0.000000    0.000000   28.385000   176     0.1613

  Lengths:  16.770000  16.770000  28.385000
  Angles:   90.000000  90.000000  90.000000

Effective grid spacing dv^(1/3) = 0.1613

     iter     time        total  log10-change:
                         energy  eigst   dens
iter:   1 01:20:06 -3706.978714
iter:   2 01:31:11 -3709.129138  +0.11  -1.38
iter:   3 01:42:18 -3708.234067  -0.23  -1.38
iter:   4 01:53:32 -3708.079509  -0.48  -1.52
Writing to output.gpw (mode='')

iter:   5 02:04:57 -3708.198874c -0.73  -1.68
iter:   6 02:16:00 -3708.417964  -1.02  -1.79
iter:   7 02:27:09 -3708.514628  -1.19  -1.78
iter:   8 02:38:21 -3708.643546  -1.49  -1.85
iter:   9 02:49:16 -3708.686022  -1.50  -2.63
Writing to output.gpw (mode='')

iter:  10 03:00:11 -3708.712263c -1.89  -2.56
iter:  11 03:11:18 -3708.724677c -1.82  -2.51
iter:  12 03:22:56 -3708.740791c -2.31  -2.42
iter:  13 03:34:18 -3708.751977c -2.15  -2.47
iter:  14 03:45:30 -3708.758729c -2.51  -2.49
Writing to output.gpw (mode='')

iter:  15 03:56:50 -3708.785035c -2.51  -2.48
iter:  16 04:07:41 -3708.791447c -2.47  -3.14
iter:  17 04:19:07 -3708.793587c -2.78  -3.19
iter:  18 04:30:17 -3708.797692c -2.78  -3.19
iter:  19 04:41:32 -3708.799491c -2.94  -3.17
Writing to output.gpw (mode='')

iter:  20 04:52:39 -3708.800740c -3.04  -3.21
iter:  21 05:03:53 -3708.801825c -3.19  -3.23
iter:  22 05:14:38 -3708.802566c -3.24  -3.23
iter:  23 05:26:01 -3708.803495c -3.42  -3.21
iter:  24 05:37:19 -3708.803725c -3.46  -3.23
Writing to output.gpw (mode='')

iter:  25 05:48:22 -3708.804712c -3.63  -3.21
iter:  26 05:59:51 -3708.805284c -3.67  -3.24
iter:  27 06:11:10 -3708.805515c -3.83  -3.28
iter:  28 06:22:23 -3708.805798c -3.77  -3.29
iter:  29 06:33:31 -3708.805901c -3.83  -3.42
Writing to output.gpw (mode='')

iter:  30 06:45:04 -3708.805891c -4.08  -3.41
iter:  31 06:56:20 -3708.806243c -3.96  -3.35
iter:  32 07:07:32 -3708.806444c -3.88  -3.59
iter:  33 07:18:31 -3708.806469c -4.28  -3.54
iter:  34 07:29:26 -3708.806603c -4.09  -3.57
Writing to output.gpw (mode='')

iter:  35 07:40:25 -3708.806899c -4.53  -3.60
iter:  36 07:51:40 -3708.806904c -4.42  -3.78
iter:  37 08:02:53 -3708.806989c -4.75  -3.77
iter:  38 08:13:53 -3708.807060c -4.58  -3.79
iter:  39 08:24:57 -3708.806949c -4.92  -3.73
Writing to output.gpw (mode='')

iter:  40 08:36:07 -3708.807103c -5.03  -3.82
iter:  41 08:47:14 -3708.807008c -5.13  -3.78
iter:  42 08:57:59 -3708.807068c -5.23  -3.77
iter:  43 09:09:00 -3708.807074c -5.25  -3.77
iter:  44 09:20:15 -3708.807072c -5.54  -3.76
Writing to output.gpw (mode='')

iter:  45 09:31:38 -3708.807145c -5.55  -3.79
iter:  46 09:42:37 -3708.807042c -5.56  -3.75
iter:  47 09:53:35 -3708.807125c -5.85  -3.76
iter:  48 10:04:29 -3708.807083c -5.85  -3.76
iter:  49 10:15:37 -3708.807093c -6.07  -3.77
Writing to output.gpw (mode='')

iter:  50 10:26:45 -3708.807099c -6.06  -3.77
iter:  51 10:37:34 -3708.807130c -6.20  -3.77
iter:  52 10:48:21 -3708.807207c -5.99  -3.77
iter:  53 10:59:39 -3708.807280c -5.50  -3.81
iter:  54 11:10:52 -3708.807194c -5.29  -3.74
Writing to output.gpw (mode='')

iter:  55 11:21:52 -3708.807212c -5.24  -3.95
iter:  56 11:33:09 -3708.807168c -5.85  -4.07c
iter:  57 11:44:18 -3708.807175c -6.00  -4.13c
iter:  58 11:55:07 -3708.807178c -6.13  -4.15c
iter:  59 12:05:59 -3708.807155c -6.39  -4.18c
Writing to output.gpw (mode='')

iter:  60 12:17:16 -3708.807175c -5.97  -4.21c
iter:  61 12:28:26 -3708.807190c -6.11  -4.70c
iter:  62 12:39:37 -3708.807186c -6.12  -4.70c
iter:  63 12:51:11 -3708.807188c -6.58  -4.64c
iter:  64 13:02:26 -3708.807191c -6.31  -4.67c
Writing to output.gpw (mode='')

iter:  65 13:13:45 -3708.807187c -6.86  -4.64c
iter:  66 13:25:08 -3708.807196c -6.71  -4.63c
iter:  67 13:36:26 -3708.807186c -6.93  -4.58c
iter:  68 13:47:22 -3708.807188c -7.24  -4.60c
iter:  69 13:58:27 -3708.807187c -7.15  -4.59c
Writing to output.gpw (mode='')

iter:  70 14:09:33 -3708.807183c -7.58c -4.60c

Converged after 70 iterations.

Dipole moment: (-26.304834, -26.304834, -0.000000) |e|*Ang

Energy contributions relative to reference atoms: (reference = -2919720.687235)

Kinetic:       +332.088884
Potential:     -299.202084
External:        +0.000000
XC:            -3737.426477
Entropy (-ST):   -0.492091
Local:           -4.021459
--------------------------
Free energy:   -3709.053228
Extrapolated:  -3708.807183

Dipole-layer corrected work functions: 2.365292, 2.365292 eV

 Band  Eigenvalues  Occupancy
    0    -31.77373    2.00000
    1    -31.77373    2.00000
    2    -31.77311    2.00000
    3    -31.77311    2.00000
    4    -31.77309    2.00000
    5    -31.77309    2.00000
    6    -31.77298    2.00000
    7    -31.77298    2.00000
    8    -31.77296    2.00000
    9    -31.77296    2.00000
   10    -31.77284    2.00000
   11    -31.77284    2.00000
   12    -31.77271    2.00000
   13    -31.77271    2.00000
   14    -31.77271    2.00000
   15    -31.77271    2.00000
   16    -31.77259    2.00000
   17    -31.77259    2.00000
   18    -31.54828    2.00000
   19    -31.54768    2.00000
   20    -31.54760    2.00000
   21    -31.54715    2.00000
   22    -31.54665    2.00000
   23    -31.54654    2.00000
   24    -31.54639    2.00000
   25    -31.54632    2.00000
   26    -31.54598    2.00000
   27    -31.54576    2.00000
   28    -31.54552    2.00000
   29    -31.54552    2.00000
   30    -31.54548    2.00000
   31    -31.54546    2.00000
   32    -31.54494    2.00000
   33    -31.54470    2.00000
   34    -31.54460    2.00000
   35    -31.54422    2.00000
   36    -15.84204    2.00000
   37    -15.84200    2.00000
   38    -15.84198    2.00000
   39    -15.84170    2.00000
   40    -15.84163    2.00000
   41    -15.84116    2.00000
   42    -15.84115    2.00000
   43    -15.84100    2.00000
   44    -15.84086    2.00000
   45    -15.84075    2.00000
   46    -15.84071    2.00000
   47    -15.84017    2.00000
   48    -15.83992    2.00000
   49    -15.83992    2.00000
   50    -15.83961    2.00000
   51    -15.83959    2.00000
   52    -15.83810    2.00000
   53    -15.83806    2.00000
   54    -15.83443    2.00000
   55    -15.83431    2.00000
   56    -15.83421    2.00000
   57    -15.83408    2.00000
   58    -15.83365    2.00000
   59    -15.83357    2.00000
   60    -15.83352    2.00000
   61    -15.83341    2.00000
   62    -15.83340    2.00000
   63    -15.83295    2.00000
   64    -15.83264    2.00000
   65    -15.83246    2.00000
   66    -15.82721    2.00000
   67    -15.82708    2.00000
   68    -15.82697    2.00000
   69    -15.82685    2.00000
   70    -15.82659    2.00000
   71    -15.82605    2.00000
   72    -15.82587    2.00000
   73    -15.82573    2.00000
   74    -15.82525    2.00000
   75    -15.82510    2.00000
   76    -15.82505    2.00000
   77    -15.82490    2.00000
   78    -15.81988    2.00000
   79    -15.81964    2.00000
   80    -15.81957    2.00000
   81    -15.81951    2.00000
   82    -15.81866    2.00000
   83    -15.81852    2.00000
   84    -15.81848    2.00000
   85    -15.81835    2.00000
   86    -15.81745    2.00000
   87    -15.81738    2.00000
   88    -15.81730    2.00000
   89    -15.81723    2.00000
   90    -15.63979    2.00000
   91    -15.63937    2.00000
   92    -15.63923    2.00000
   93    -15.63846    2.00000
   94    -15.63844    2.00000
   95    -15.63818    2.00000
   96    -15.63807    2.00000
   97    -15.63784    2.00000
   98    -15.63734    2.00000
   99    -15.63663    2.00000
  100    -15.63662    2.00000
  101    -15.63555    2.00000
  102    -15.63552    2.00000
  103    -15.63464    2.00000
  104    -15.63073    2.00000
  105    -15.63067    2.00000
  106    -15.62913    2.00000
  107    -15.62125    2.00000
  108    -15.62056    2.00000
  109    -15.62026    2.00000
  110    -15.61553    2.00000
  111    -15.61541    2.00000
  112    -15.61539    2.00000
  113    -15.61371    2.00000
  114    -15.61366    2.00000
  115    -15.61137    2.00000
  116    -15.60712    2.00000
  117    -15.60698    2.00000
  118    -15.60513    2.00000
  119    -15.60502    2.00000
  120    -15.59797    2.00000
  121    -15.59786    2.00000
  122    -15.59780    2.00000
  123    -15.59427    2.00000
  124    -15.59080    2.00000
  125    -15.59056    2.00000
  126    -15.58979    2.00000
  127    -15.58973    2.00000
  128    -15.58865    2.00000
  129    -15.58846    2.00000
  130    -15.58838    2.00000
  131    -15.58838    2.00000
  132    -15.58817    2.00000
  133    -15.58810    2.00000
  134    -15.58762    2.00000
  135    -15.58743    2.00000
  136    -15.58735    2.00000
  137    -15.58735    2.00000
  138    -15.58731    2.00000
  139    -15.58575    2.00000
  140    -15.58573    2.00000
  141    -15.58552    2.00000
  142    -15.58483    2.00000
  143    -15.58283    2.00000
  144     -4.10448    2.00000
  145     -3.78224    2.00000
  146     -3.78219    2.00000
  147     -3.47257    2.00000
  148     -3.47216    2.00000
  149     -3.17664    2.00000
  150     -3.17659    2.00000
  151     -3.17342    2.00000
  152     -3.17338    2.00000
  153     -2.89217    1.99995
  154     -2.89214    1.99995
  155     -2.87568    1.99993
  156     -2.62358    1.98865
  157     -2.62354    1.98864
  158     -2.60632    1.98401
  159     -2.37722    1.11876
  160     -2.36299    0.97703
  161     -2.36295    0.97659
  162     -2.34412    0.79135
  163     -2.34408    0.79099
  164     -2.33160    0.67531
  165     -2.33156    0.67494
  166     -2.10918    0.01185
  167     -2.10912    0.01184
  168     -2.06876    0.00530
  169     -2.02896    0.00239
  170     -2.02895    0.00239
  171     -1.87090    0.00010
  172     -1.79471    0.00002
  173     -1.75401    0.00001
  174     -1.68567    0.00000
  175     -1.68567    0.00000
  176     -1.55171    0.00000
  177     -1.55166    0.00000
  178     -1.17566    0.00000
  179     -1.16051    0.00000

Fermi level: -2.36529

Gap: 0.014 eV
Transition (v -> c):
  (s=0, k=0, n=159, [0.25, 0.25, 0.00]) -> (s=0, k=0, n=160, [0.25, 0.25, 0.00])

Forces in eV/Ang:
  0 Rb    0.00691    0.00691   -0.06855
  1 Rb    0.00000    0.06071   -0.06748
  2 Rb   -0.00691    0.00691   -0.06855
  3 Rb    0.06071    0.00000   -0.06748
  4 Rb    0.00000    0.00000   -0.06665
  5 Rb   -0.06071    0.00000   -0.06748
  6 Rb    0.00691   -0.00691   -0.06855
  7 Rb    0.00000   -0.06071   -0.06748
  8 Rb   -0.00691   -0.00691   -0.06855
  9 Rb    0.00000    0.00000    0.07641
 10 Rb   -0.00725    0.00000    0.02298
 11 Rb    0.00725    0.00000    0.02298
 12 Rb    0.00000   -0.00725    0.02298
 13 Rb    0.03755    0.03755   -0.02087
 14 Rb   -0.03755    0.03755   -0.02087
 15 Rb    0.00000    0.00725    0.02298
 16 Rb    0.03755   -0.03755   -0.02087
 17 Rb   -0.03755   -0.03755   -0.02087
 18 Rb   -0.03755   -0.03755    0.02087
 19 Rb    0.00000    0.00725   -0.02298
 20 Rb    0.03755   -0.03755    0.02087
 21 Rb    0.00725    0.00000   -0.02298
 22 Rb    0.00000    0.00000   -0.07641
 23 Rb   -0.00725    0.00000   -0.02298
 24 Rb   -0.03755    0.03755    0.02087
 25 Rb    0.00000   -0.00725   -0.02298
 26 Rb    0.03755    0.03755    0.02087
 27 Rb    0.00000    0.00000    0.06665
 28 Rb   -0.06071    0.00000    0.06748
 29 Rb    0.06071    0.00000    0.06748
 30 Rb    0.00000   -0.06071    0.06748
 31 Rb   -0.00691   -0.00691    0.06855
 32 Rb    0.00691   -0.00691    0.06855
 33 Rb    0.00000    0.06071    0.06748
 34 Rb   -0.00691    0.00691    0.06855
 35 Rb    0.00691    0.00691    0.06855

System changes: positions 

Initializing position-dependent things.

Density initialized from wave functions
           .----------------------------------------.  
          /|                                        |  
         / |                                        |  
        /  |                                        |  
       /   |                                        |  
      /    |                                        |  
     /     |                                        |  
    /      |                                        |  
   /       |                                        |  
  /        |                                        |  
 *         |                                        |  
 |         |                                        |  
 |         |                                        |  
 |         |                                        |  
 |         |                                        |  
 |         |                                        |  
 |      Rb |         Rb            Rb               |  
 |         |    Rb            Rb            Rb      |  
 |         |                                        |  
 |  Rb     |      Rb            Rb                  |  
 |         |                                        |  
 |         | Rb            Rb           Rb          |  
 Rb        |   Rb           Rb                      |  
 |      Rb |         Rb            Rb               |  
 |       Rb|    Rb     Rb     Rb     Rb    Rb       |  
 |         |                                        |  
 |  Rb     |      Rb            Rb                  |  
 |         |                                        |  
 |         | Rb            Rb           Rb          |  
 Rb        |   Rb           Rb                      |  
 |         |                                        |  
 |        Rb           Rb            Rb             |  
 |         |                                        |  
 |         |                                        |  
 |         |                                        |  
 |         .----------------------------------------.  
 |        /                                        /   
 |       /                                        /    
 |      /                                        /     
 |     /                                        /      
 |    /                                        /       
 |   /                                        /        
 |  /                                        /         
 | /                                        /          
 |/                                        /           
 *----------------------------------------*            

Positions:
   0 Rb     2.795099    2.795099    9.999021    ( 0.0000,  0.0000,  0.0000)
   1 Rb     8.385000    2.795867    9.999036    ( 0.0000,  0.0000,  0.0000)
   2 Rb    13.974901    2.795099    9.999021    ( 0.0000,  0.0000,  0.0000)
   3 Rb     2.795867    8.385000    9.999036    ( 0.0000,  0.0000,  0.0000)
   4 Rb     8.385000    8.385000    9.999048    ( 0.0000,  0.0000,  0.0000)
   5 Rb    13.974133    8.385000    9.999036    ( 0.0000,  0.0000,  0.0000)
   6 Rb     2.795099   13.974901    9.999021    ( 0.0000,  0.0000,  0.0000)
   7 Rb     8.385000   13.974133    9.999036    ( 0.0000,  0.0000,  0.0000)
   8 Rb    13.974901   13.974901    9.999021    ( 0.0000,  0.0000,  0.0000)
   9 Rb     0.000000    0.000000   12.796092    ( 0.0000,  0.0000,  0.0000)
  10 Rb     5.589896    0.000000   12.795328    ( 0.0000,  0.0000,  0.0000)
  11 Rb    11.180104    0.000000   12.795328    ( 0.0000,  0.0000,  0.0000)
  12 Rb     0.000000    5.589896   12.795328    ( 0.0000,  0.0000,  0.0000)
  13 Rb     5.590536    5.590536   12.794702    ( 0.0000,  0.0000,  0.0000)
  14 Rb    11.179464    5.590536   12.794702    ( 0.0000,  0.0000,  0.0000)
  15 Rb     0.000000   11.180104   12.795328    ( 0.0000,  0.0000,  0.0000)
  16 Rb     5.590536   11.179464   12.794702    ( 0.0000,  0.0000,  0.0000)
  17 Rb    11.179464   11.179464   12.794702    ( 0.0000,  0.0000,  0.0000)
  18 Rb     2.794464    2.794464   15.590298    ( 0.0000,  0.0000,  0.0000)
  19 Rb     8.385000    2.795104   15.589672    ( 0.0000,  0.0000,  0.0000)
  20 Rb    13.975536    2.794464   15.590298    ( 0.0000,  0.0000,  0.0000)
  21 Rb     2.795104    8.385000   15.589672    ( 0.0000,  0.0000,  0.0000)
  22 Rb     8.385000    8.385000   15.588908    ( 0.0000,  0.0000,  0.0000)
  23 Rb    13.974896    8.385000   15.589672    ( 0.0000,  0.0000,  0.0000)
  24 Rb     2.794464   13.975536   15.590298    ( 0.0000,  0.0000,  0.0000)
  25 Rb     8.385000   13.974896   15.589672    ( 0.0000,  0.0000,  0.0000)
  26 Rb    13.975536   13.975536   15.590298    ( 0.0000,  0.0000,  0.0000)
  27 Rb     0.000000    0.000000   18.385952    ( 0.0000,  0.0000,  0.0000)
  28 Rb     5.589133    0.000000   18.385964    ( 0.0000,  0.0000,  0.0000)
  29 Rb    11.180867    0.000000   18.385964    ( 0.0000,  0.0000,  0.0000)
  30 Rb     0.000000    5.589133   18.385964    ( 0.0000,  0.0000,  0.0000)
  31 Rb     5.589901    5.589901   18.385979    ( 0.0000,  0.0000,  0.0000)
  32 Rb    11.180099    5.589901   18.385979    ( 0.0000,  0.0000,  0.0000)
  33 Rb     0.000000   11.180867   18.385964    ( 0.0000,  0.0000,  0.0000)
  34 Rb     5.589901   11.180099   18.385979    ( 0.0000,  0.0000,  0.0000)
  35 Rb    11.180099   11.180099   18.385979    ( 0.0000,  0.0000,  0.0000)

Unit cell:
           periodic     x           y           z      points  spacing
  1. axis:    yes   16.770000    0.000000    0.000000   104     0.1612
  2. axis:    yes    0.000000   16.770000    0.000000   104     0.1612
  3. axis:    no     0.000000    0.000000   28.385000   176     0.1613

  Lengths:  16.770000  16.770000  28.385000
  Angles:   90.000000  90.000000  90.000000

Effective grid spacing dv^(1/3) = 0.1613

     iter     time        total  log10-change:
                         energy  eigst   dens
iter:   1 14:21:27 -3708.809316  -4.75
iter:   2 14:32:32 -3708.809327  -5.69  -4.28c
iter:   3 14:43:55 -3708.809327c -6.14  -4.29c
iter:   4 14:55:08 -3708.809366c -6.47  -4.27c
Writing to output.gpw (mode='')

iter:   5 15:06:25 -3708.809377c -6.80  -4.47c
iter:   6 15:17:35 -3708.809342c -7.05  -4.52c
iter:   7 15:28:34 -3708.809363c -7.26  -4.58c
iter:   8 15:39:46 -3708.809364c -7.27  -4.76c
iter:   9 15:50:56 -3708.809371c -7.42c -4.79c

Converged after 9 iterations.

Dipole moment: (-26.304911, -26.304911, -0.000000) |e|*Ang

Energy contributions relative to reference atoms: (reference = -2919720.687235)

Kinetic:       +332.148582
Potential:     -299.274145
External:        +0.000000
XC:            -3737.426197
Entropy (-ST):   -0.492129
Local:           -4.011546
--------------------------
Free energy:   -3709.055436
Extrapolated:  -3708.809371

Dipole-layer corrected work functions: 2.364257, 2.364257 eV

 Band  Eigenvalues  Occupancy
    0    -31.77213    2.00000
    1    -31.77213    2.00000
    2    -31.77179    2.00000
    3    -31.77179    2.00000
    4    -31.77172    2.00000
    5    -31.77172    2.00000
    6    -31.77165    2.00000
    7    -31.77165    2.00000
    8    -31.77161    2.00000
    9    -31.77161    2.00000
   10    -31.77160    2.00000
   11    -31.77160    2.00000
   12    -31.77151    2.00000
   13    -31.77151    2.00000
   14    -31.77150    2.00000
   15    -31.77149    2.00000
   16    -31.77139    2.00000
   17    -31.77139    2.00000
   18    -31.54728    2.00000
   19    -31.54669    2.00000
   20    -31.54658    2.00000
   21    -31.54613    2.00000
   22    -31.54565    2.00000
   23    -31.54553    2.00000
   24    -31.54539    2.00000
   25    -31.54529    2.00000
   26    -31.54497    2.00000
   27    -31.54472    2.00000
   28    -31.54457    2.00000
   29    -31.54454    2.00000
   30    -31.54447    2.00000
   31    -31.54444    2.00000
   32    -31.54395    2.00000
   33    -31.54371    2.00000
   34    -31.54360    2.00000
   35    -31.54321    2.00000
   36    -15.84084    2.00000
   37    -15.84081    2.00000
   38    -15.84078    2.00000
   39    -15.84049    2.00000
   40    -15.84032    2.00000
   41    -15.84000    2.00000
   42    -15.83996    2.00000
   43    -15.83974    2.00000
   44    -15.83953    2.00000
   45    -15.83945    2.00000
   46    -15.83940    2.00000
   47    -15.83896    2.00000
   48    -15.83863    2.00000
   49    -15.83859    2.00000
   50    -15.83833    2.00000
   51    -15.83827    2.00000
   52    -15.83681    2.00000
   53    -15.83676    2.00000
   54    -15.83313    2.00000
   55    -15.83298    2.00000
   56    -15.83291    2.00000
   57    -15.83276    2.00000
   58    -15.83233    2.00000
   59    -15.83225    2.00000
   60    -15.83220    2.00000
   61    -15.83212    2.00000
   62    -15.83211    2.00000
   63    -15.83164    2.00000
   64    -15.83133    2.00000
   65    -15.83115    2.00000
   66    -15.82590    2.00000
   67    -15.82577    2.00000
   68    -15.82566    2.00000
   69    -15.82553    2.00000
   70    -15.82528    2.00000
   71    -15.82474    2.00000
   72    -15.82456    2.00000
   73    -15.82442    2.00000
   74    -15.82394    2.00000
   75    -15.82379    2.00000
   76    -15.82374    2.00000
   77    -15.82360    2.00000
   78    -15.81856    2.00000
   79    -15.81832    2.00000
   80    -15.81825    2.00000
   81    -15.81819    2.00000
   82    -15.81735    2.00000
   83    -15.81719    2.00000
   84    -15.81717    2.00000
   85    -15.81703    2.00000
   86    -15.81612    2.00000
   87    -15.81605    2.00000
   88    -15.81600    2.00000
   89    -15.81593    2.00000
   90    -15.63881    2.00000
   91    -15.63840    2.00000
   92    -15.63826    2.00000
   93    -15.63750    2.00000
   94    -15.63743    2.00000
   95    -15.63721    2.00000
   96    -15.63711    2.00000
   97    -15.63690    2.00000
   98    -15.63636    2.00000
   99    -15.63569    2.00000
  100    -15.63564    2.00000
  101    -15.63459    2.00000
  102    -15.63451    2.00000
  103    -15.63364    2.00000
  104    -15.62978    2.00000
  105    -15.62970    2.00000
  106    -15.62818    2.00000
  107    -15.62027    2.00000
  108    -15.61961    2.00000
  109    -15.61931    2.00000
  110    -15.61457    2.00000
  111    -15.61445    2.00000
  112    -15.61439    2.00000
  113    -15.61274    2.00000
  114    -15.61267    2.00000
  115    -15.61037    2.00000
  116    -15.60615    2.00000
  117    -15.60603    2.00000
  118    -15.60414    2.00000
  119    -15.60403    2.00000
  120    -15.59699    2.00000
  121    -15.59690    2.00000
  122    -15.59681    2.00000
  123    -15.59326    2.00000
  124    -15.58983    2.00000
  125    -15.58958    2.00000
  126    -15.58879    2.00000
  127    -15.58873    2.00000
  128    -15.58767    2.00000
  129    -15.58747    2.00000
  130    -15.58740    2.00000
  131    -15.58738    2.00000
  132    -15.58720    2.00000
  133    -15.58712    2.00000
  134    -15.58663    2.00000
  135    -15.58644    2.00000
  136    -15.58637    2.00000
  137    -15.58635    2.00000
  138    -15.58635    2.00000
  139    -15.58478    2.00000
  140    -15.58477    2.00000
  141    -15.58455    2.00000
  142    -15.58386    2.00000
  143    -15.58186    2.00000
  144     -4.10330    2.00000
  145     -3.78115    2.00000
  146     -3.78095    2.00000
  147     -3.47138    2.00000
  148     -3.47100    2.00000
  149     -3.17554    2.00000
  150     -3.17537    2.00000
  151     -3.17231    2.00000
  152     -3.17214    2.00000
  153     -2.89105    1.99995
  154     -2.89096    1.99995
  155     -2.87452    1.99993
  156     -2.62247    1.98863
  157     -2.62233    1.98860
  158     -2.60562    1.98411
  159     -2.37608    1.11767
  160     -2.36185    0.97589
  161     -2.36179    0.97537
  162     -2.34342    0.79461
  163     -2.34327    0.79313
  164     -2.33048    0.67449
  165     -2.33040    0.67379
  166     -2.10809    0.01184
  167     -2.10792    0.01180
  168     -2.06799    0.00533
  169     -2.02792    0.00239
  170     -2.02789    0.00239
  171     -1.86979    0.00010
  172     -1.79426    0.00002
  173     -1.75288    0.00001
  174     -1.68465    0.00000
  175     -1.68459    0.00000
  176     -1.55186    0.00000
  177     -1.55177    0.00000
  178     -1.17950    0.00000
  179     -1.16266    0.00000

Fermi level: -2.36426

Gap: 0.014 eV
Transition (v -> c):
  (s=0, k=0, n=159, [0.25, 0.25, 0.00]) -> (s=0, k=0, n=160, [0.25, 0.25, 0.00])
Writing to output.gpw (mode='')


Forces in eV/Ang:
  0 Rb    0.00718    0.00718   -0.06718
  1 Rb    0.00000    0.05870   -0.06835
  2 Rb   -0.00718    0.00718   -0.06718
  3 Rb    0.05870    0.00000   -0.06835
  4 Rb    0.00000    0.00000   -0.06951
  5 Rb   -0.05870    0.00000   -0.06835
  6 Rb    0.00718   -0.00718   -0.06718
  7 Rb    0.00000   -0.05870   -0.06835
  8 Rb   -0.00718   -0.00718   -0.06718
  9 Rb    0.00000    0.00000    0.07416
 10 Rb   -0.00610    0.00000    0.02254
 11 Rb    0.00610    0.00000    0.02254
 12 Rb    0.00000   -0.00610    0.02254
 13 Rb    0.03610    0.03610   -0.01973
 14 Rb   -0.03610    0.03610   -0.01973
 15 Rb    0.00000    0.00610    0.02254
 16 Rb    0.03610   -0.03610   -0.01973
 17 Rb   -0.03610   -0.03610   -0.01973
 18 Rb   -0.03610   -0.03610    0.01973
 19 Rb    0.00000    0.00610   -0.02254
 20 Rb    0.03610   -0.03610    0.01973
 21 Rb    0.00610    0.00000   -0.02254
 22 Rb    0.00000    0.00000   -0.07416
 23 Rb   -0.00610    0.00000   -0.02254
 24 Rb   -0.03610    0.03610    0.01973
 25 Rb    0.00000   -0.00610   -0.02254
 26 Rb    0.03610    0.03610    0.01973
 27 Rb    0.00000    0.00000    0.06951
 28 Rb   -0.05870    0.00000    0.06835
 29 Rb    0.05870    0.00000    0.06835
 30 Rb    0.00000   -0.05870    0.06835
 31 Rb   -0.00718   -0.00718    0.06718
 32 Rb    0.00718   -0.00718    0.06718
 33 Rb    0.00000    0.05870    0.06835
 34 Rb   -0.00718    0.00718    0.06718
 35 Rb    0.00718    0.00718    0.06718

System changes: positions 

Initializing position-dependent things.

Density initialized from wave functions
           .----------------------------------------.  
          /|                                        |  
         / |                                        |  
        /  |                                        |  
       /   |                                        |  
      /    |                                        |  
     /     |                                        |  
    /      |                                        |  
   /       |                                        |  
  /        |                                        |  
 *         |                                        |  
 |         |                                        |  
 |         |                                        |  
 |         |                                        |  
 |         |                                        |  
 |         |                                        |  
 |      Rb |         Rb            Rb               |  
 |         |    Rb            Rb            Rb      |  
 |         |                                        |  
 |  Rb     |      Rb            Rb                  |  
 |         |                                        |  
 |         | Rb            Rb           Rb          |  
 Rb        |   Rb           Rb                      |  
 |      Rb |         Rb            Rb               |  
 |       Rb|    Rb     Rb     Rb     Rb    Rb       |  
 |         |                                        |  
 |  Rb     |      Rb            Rb                  |  
 |         |                                        |  
 |         | Rb            Rb           Rb          |  
 Rb        |   Rb           Rb                      |  
 |         |                                        |  
 |        Rb           Rb            Rb             |  
 |         |                                        |  
 |         |                                        |  
 |         |                                        |  
 |         .----------------------------------------.  
 |        /                                        /   
 |       /                                        /    
 |      /                                        /     
 |     /                                        /      
 |    /                                        /       
 |   /                                        /        
 |  /                                        /         
 | /                                        /          
 |/                                        /           
 *----------------------------------------*            

Positions:
   0 Rb     2.795894    2.795894    9.991561    ( 0.0000,  0.0000,  0.0000)
   1 Rb     8.385000    2.802390    9.991456    ( 0.0000,  0.0000,  0.0000)
   2 Rb    13.974106    2.795894    9.991561    ( 0.0000,  0.0000,  0.0000)
   3 Rb     2.802390    8.385000    9.991456    ( 0.0000,  0.0000,  0.0000)
   4 Rb     8.385000    8.385000    9.991348    ( 0.0000,  0.0000,  0.0000)
   5 Rb    13.967610    8.385000    9.991456    ( 0.0000,  0.0000,  0.0000)
   6 Rb     2.795894   13.974106    9.991561    ( 0.0000,  0.0000,  0.0000)
   7 Rb     8.385000   13.967610    9.991456    ( 0.0000,  0.0000,  0.0000)
   8 Rb    13.974106   13.974106    9.991561    ( 0.0000,  0.0000,  0.0000)
   9 Rb    -0.000000    0.000000   12.804330    ( 0.0000,  0.0000,  0.0000)
  10 Rb     5.589215    0.000000   12.797832    ( 0.0000,  0.0000,  0.0000)
  11 Rb    11.180785    0.000000   12.797832    ( 0.0000,  0.0000,  0.0000)
  12 Rb     0.000000    5.589215   12.797832    ( 0.0000,  0.0000,  0.0000)
  13 Rb     5.594548    5.594548   12.792507    ( 0.0000,  0.0000,  0.0000)
  14 Rb    11.175452    5.594548   12.792507    ( 0.0000,  0.0000,  0.0000)
  15 Rb    -0.000000   11.180785   12.797832    ( 0.0000,  0.0000,  0.0000)
  16 Rb     5.594548   11.175452   12.792507    ( 0.0000,  0.0000,  0.0000)
  17 Rb    11.175452   11.175452   12.792507    ( 0.0000,  0.0000,  0.0000)
  18 Rb     2.790452    2.790452   15.592493    ( 0.0000,  0.0000,  0.0000)
  19 Rb     8.385000    2.795785   15.587169    ( 0.0000,  0.0000,  0.0000)
  20 Rb    13.979548    2.790452   15.592493    ( 0.0000,  0.0000,  0.0000)
  21 Rb     2.795785    8.385000   15.587169    ( 0.0000,  0.0000,  0.0000)
  22 Rb     8.385000    8.385000   15.580670    ( 0.0000,  0.0000,  0.0000)
  23 Rb    13.974215    8.385000   15.587169    ( 0.0000,  0.0000,  0.0000)
  24 Rb     2.790452   13.979548   15.592493    ( 0.0000,  0.0000,  0.0000)
  25 Rb     8.385000   13.974215   15.587169    ( 0.0000,  0.0000,  0.0000)
  26 Rb    13.979548   13.979548   15.592493    ( 0.0000,  0.0000,  0.0000)
  27 Rb    -0.000000   -0.000000   18.393652    ( 0.0000,  0.0000,  0.0000)
  28 Rb     5.582610    0.000000   18.393544    ( 0.0000,  0.0000,  0.0000)
  29 Rb    11.187390    0.000000   18.393544    ( 0.0000,  0.0000,  0.0000)
  30 Rb    -0.000000    5.582610   18.393544    ( 0.0000,  0.0000,  0.0000)
  31 Rb     5.589106    5.589106   18.393439    ( 0.0000,  0.0000,  0.0000)
  32 Rb    11.180894    5.589106   18.393439    ( 0.0000,  0.0000,  0.0000)
  33 Rb    -0.000000   11.187390   18.393544    ( 0.0000,  0.0000,  0.0000)
  34 Rb     5.589106   11.180894   18.393439    ( 0.0000,  0.0000,  0.0000)
  35 Rb    11.180894   11.180894   18.393439    ( 0.0000,  0.0000,  0.0000)

Unit cell:
           periodic     x           y           z      points  spacing
  1. axis:    yes   16.770000    0.000000    0.000000   104     0.1612
  2. axis:    yes    0.000000   16.770000    0.000000   104     0.1612
  3. axis:    no     0.000000    0.000000   28.385000   176     0.1613

  Lengths:  16.770000  16.770000  28.385000
  Angles:   90.000000  90.000000  90.000000

Effective grid spacing dv^(1/3) = 0.1613

     iter     time        total  log10-change:
                         energy  eigst   dens
iter:   1 16:03:06 -3708.824731  -3.01
iter:   2 16:14:15 -3708.824953  -4.02  -3.57
iter:   3 16:25:26 -3708.825045c -4.53  -3.56
iter:   4 16:36:28 -3708.824915c -4.88  -3.50
Writing to output.gpw (mode='')

iter:   5 16:47:58 -3708.824916c -5.20  -3.83
iter:   6 16:58:44 -3708.824894c -5.45  -3.87
iter:   7 17:09:50 -3708.824864c -5.69  -3.91
iter:   8 17:21:13 -3708.824874c -5.85  -4.17c
iter:   9 17:32:32 -3708.824907c -6.11  -4.23c
Writing to output.gpw (mode='')

iter:  10 17:43:39 -3708.824900c -6.20  -4.39c
iter:  11 17:54:51 -3708.824897c -6.47  -4.47c
iter:  12 18:05:46 -3708.824896c -6.56  -4.50c
iter:  13 18:17:02 -3708.824878c -6.78  -4.51c
iter:  14 18:27:53 -3708.824876c -6.68  -4.73c
Writing to output.gpw (mode='')

iter:  15 18:38:56 -3708.824878c -7.05  -4.84c
iter:  16 18:49:57 -3708.824879c -7.02  -4.86c
iter:  17 19:01:24 -3708.824882c -7.18  -4.86c
iter:  18 19:12:28 -3708.824888c -7.27  -4.88c
iter:  19 19:23:31 -3708.824888c -7.35  -4.90c
Writing to output.gpw (mode='')

iter:  20 19:34:41 -3708.824887c -7.47c -4.96c

Converged after 20 iterations.

Dipole moment: (-26.304992, -26.304992, 0.000079) |e|*Ang

Energy contributions relative to reference atoms: (reference = -2919720.687235)

Kinetic:       +331.712735
Potential:     -298.961215
External:        +0.000000
XC:            -3737.338301
Entropy (-ST):   -0.492462
Local:           -3.991874
--------------------------
Free energy:   -3709.071118
Extrapolated:  -3708.824887

Dipole-layer corrected work functions: 2.364918, 2.364867 eV

 Band  Eigenvalues  Occupancy
    0    -31.77291    2.00000
    1    -31.77287    2.00000
    2    -31.77283    2.00000
    3    -31.77279    2.00000
    4    -31.77278    2.00000
    5    -31.77274    2.00000
    6    -31.77272    2.00000
    7    -31.77272    2.00000
    8    -31.77267    2.00000
    9    -31.77267    2.00000
   10    -31.77263    2.00000
   11    -31.77260    2.00000
   12    -31.77259    2.00000
   13    -31.77256    2.00000
   14    -31.77251    2.00000
   15    -31.77247    2.00000
   16    -31.77181    2.00000
   17    -31.77177    2.00000
   18    -31.54867    2.00000
   19    -31.54811    2.00000
   20    -31.54793    2.00000
   21    -31.54751    2.00000
   22    -31.54706    2.00000
   23    -31.54688    2.00000
   24    -31.54683    2.00000
   25    -31.54661    2.00000
   26    -31.54634    2.00000
   27    -31.54607    2.00000
   28    -31.54600    2.00000
   29    -31.54599    2.00000
   30    -31.54580    2.00000
   31    -31.54576    2.00000
   32    -31.54531    2.00000
   33    -31.54514    2.00000
   34    -31.54484    2.00000
   35    -31.54453    2.00000
   36    -15.84182    2.00000
   37    -15.84177    2.00000
   38    -15.84176    2.00000
   39    -15.84140    2.00000
   40    -15.84135    2.00000
   41    -15.84095    2.00000
   42    -15.84092    2.00000
   43    -15.84077    2.00000
   44    -15.84056    2.00000
   45    -15.84043    2.00000
   46    -15.84024    2.00000
   47    -15.83994    2.00000
   48    -15.83973    2.00000
   49    -15.83942    2.00000
   50    -15.83908    2.00000
   51    -15.83889    2.00000
   52    -15.83751    2.00000
   53    -15.83745    2.00000
   54    -15.83399    2.00000
   55    -15.83387    2.00000
   56    -15.83376    2.00000
   57    -15.83365    2.00000
   58    -15.83318    2.00000
   59    -15.83312    2.00000
   60    -15.83310    2.00000
   61    -15.83301    2.00000
   62    -15.83293    2.00000
   63    -15.83250    2.00000
   64    -15.83219    2.00000
   65    -15.83202    2.00000
   66    -15.82676    2.00000
   67    -15.82668    2.00000
   68    -15.82651    2.00000
   69    -15.82645    2.00000
   70    -15.82614    2.00000
   71    -15.82561    2.00000
   72    -15.82547    2.00000
   73    -15.82533    2.00000
   74    -15.82481    2.00000
   75    -15.82469    2.00000
   76    -15.82461    2.00000
   77    -15.82450    2.00000
   78    -15.81940    2.00000
   79    -15.81918    2.00000
   80    -15.81910    2.00000
   81    -15.81905    2.00000
   82    -15.81819    2.00000
   83    -15.81805    2.00000
   84    -15.81801    2.00000
   85    -15.81790    2.00000
   86    -15.81692    2.00000
   87    -15.81685    2.00000
   88    -15.81684    2.00000
   89    -15.81678    2.00000
   90    -15.64032    2.00000
   91    -15.63981    2.00000
   92    -15.63976    2.00000
   93    -15.63894    2.00000
   94    -15.63892    2.00000
   95    -15.63866    2.00000
   96    -15.63864    2.00000
   97    -15.63844    2.00000
   98    -15.63778    2.00000
   99    -15.63722    2.00000
  100    -15.63714    2.00000
  101    -15.63598    2.00000
  102    -15.63594    2.00000
  103    -15.63501    2.00000
  104    -15.63128    2.00000
  105    -15.63117    2.00000
  106    -15.62970    2.00000
  107    -15.62171    2.00000
  108    -15.62108    2.00000
  109    -15.62081    2.00000
  110    -15.61598    2.00000
  111    -15.61597    2.00000
  112    -15.61574    2.00000
  113    -15.61417    2.00000
  114    -15.61411    2.00000
  115    -15.61172    2.00000
  116    -15.60753    2.00000
  117    -15.60751    2.00000
  118    -15.60552    2.00000
  119    -15.60546    2.00000
  120    -15.59837    2.00000
  121    -15.59827    2.00000
  122    -15.59825    2.00000
  123    -15.59462    2.00000
  124    -15.59135    2.00000
  125    -15.59082    2.00000
  126    -15.59021    2.00000
  127    -15.59010    2.00000
  128    -15.58912    2.00000
  129    -15.58891    2.00000
  130    -15.58875    2.00000
  131    -15.58865    2.00000
  132    -15.58862    2.00000
  133    -15.58844    2.00000
  134    -15.58801    2.00000
  135    -15.58784    2.00000
  136    -15.58771    2.00000
  137    -15.58750    2.00000
  138    -15.58750    2.00000
  139    -15.58627    2.00000
  140    -15.58594    2.00000
  141    -15.58590    2.00000
  142    -15.58520    2.00000
  143    -15.58321    2.00000
  144     -4.10290    2.00000
  145     -3.78154    2.00000
  146     -3.77990    2.00000
  147     -3.47147    2.00000
  148     -3.47073    2.00000
  149     -3.17595    2.00000
  150     -3.17449    2.00000
  151     -3.17314    2.00000
  152     -3.17168    2.00000
  153     -2.89134    1.99995
  154     -2.89023    1.99995
  155     -2.87480    1.99993
  156     -2.62335    1.98868
  157     -2.62207    1.98839
  158     -2.60817    1.98470
  159     -2.37585    1.10909
  160     -2.36196    0.97066
  161     -2.36124    0.96345
  162     -2.34621    0.81533
  163     -2.34489    0.80262
  164     -2.33127    0.67594
  165     -2.33035    0.66765
  166     -2.10847    0.01178
  167     -2.10710    0.01147
  168     -2.06994    0.00547
  169     -2.02878    0.00240
  170     -2.02870    0.00240
  171     -1.86989    0.00010
  172     -1.79668    0.00002
  173     -1.75296    0.00001
  174     -1.68558    0.00000
  175     -1.68521    0.00000
  176     -1.55526    0.00000
  177     -1.55472    0.00000
  178     -1.18653    0.00000
  179     -1.17516    0.00000

Fermi level: -2.36489

Gap: 0.014 eV
Transition (v -> c):
  (s=0, k=0, n=159, [0.25, 0.25, 0.00]) -> (s=0, k=0, n=160, [0.25, 0.25, 0.00])

Forces in eV/Ang:
  0 Rb    0.00359    0.00359   -0.05684
  1 Rb    0.00000    0.04065   -0.07394
  2 Rb   -0.00359    0.00359   -0.05684
  3 Rb    0.04065    0.00000   -0.07394
  4 Rb    0.00000    0.00000   -0.09059
  5 Rb   -0.04065    0.00000   -0.07394
  6 Rb    0.00359   -0.00359   -0.05684
  7 Rb    0.00000   -0.04065   -0.07394
  8 Rb   -0.00359   -0.00359   -0.05684
  9 Rb    0.00000    0.00000    0.04777
 10 Rb   -0.00300    0.00000    0.01682
 11 Rb    0.00300    0.00000    0.01682
 12 Rb    0.00000   -0.00300    0.01682
 13 Rb    0.02584    0.02584   -0.01027
 14 Rb   -0.02584    0.02584   -0.01027
 15 Rb    0.00000    0.00300    0.01682
 16 Rb    0.02584   -0.02584   -0.01027
 17 Rb   -0.02584   -0.02584   -0.01027
 18 Rb   -0.02584   -0.02584    0.01021
 19 Rb    0.00000    0.00299   -0.01689
 20 Rb    0.02584   -0.02584    0.01021
 21 Rb    0.00299    0.00000   -0.01689
 22 Rb    0.00000    0.00000   -0.04784
 23 Rb   -0.00299    0.00000   -0.01689
 24 Rb   -0.02584    0.02584    0.01021
 25 Rb    0.00000   -0.00299   -0.01689
 26 Rb    0.02584    0.02584    0.01021
 27 Rb    0.00000    0.00000    0.09055
 28 Rb   -0.04065    0.00000    0.07390
 29 Rb    0.04065    0.00000    0.07390
 30 Rb    0.00000   -0.04065    0.07390
 31 Rb   -0.00359   -0.00359    0.05679
 32 Rb    0.00359   -0.00359    0.05679
 33 Rb    0.00000    0.04065    0.07390
 34 Rb   -0.00359    0.00359    0.05679
 35 Rb    0.00359    0.00359    0.05679

System changes: positions 

Initializing position-dependent things.

Density initialized from wave functions
           .----------------------------------------.  
          /|                                        |  
         / |                                        |  
        /  |                                        |  
       /   |                                        |  
      /    |                                        |  
     /     |                                        |  
    /      |                                        |  
   /       |                                        |  
  /        |                                        |  
 *         |                                        |  
 |         |                                        |  
 |         |                                        |  
 |         |                                        |  
 |         |                                        |  
 |         |                                        |  
 |      Rb |         Rb            Rb               |  
 |         |    Rb            Rb            Rb      |  
 |         |                                        |  
 |  Rb     |      Rb            Rb                  |  
 |         |                                        |  
 |         | Rb            Rb           Rb          |  
 Rb        |   Rb           Rb                      |  
 |      Rb |         Rb            Rb               |  
 |       Rb|    Rb     Rb     Rb     Rb    Rb       |  
 |         |                                        |  
 |  Rb     |      Rb            Rb                  |  
 |         |                                        |  
 |         | Rb            Rb           Rb          |  
 Rb        |   Rb           Rb                      |  
 |         |                                        |  
 |        Rb           Rb            Rb             |  
 |         |                                        |  
 |         |                                        |  
 |         |                                        |  
 |         .----------------------------------------.  
 |        /                                        /   
 |       /                                        /    
 |      /                                        /     
 |     /                                        /      
 |    /                                        /       
 |   /                                        /        
 |  /                                        /         
 | /                                        /          
 |/                                        /           
 *----------------------------------------*            

Positions:
   0 Rb     2.796641    2.796641    9.984174    ( 0.0000,  0.0000,  0.0000)
   1 Rb     8.385000    2.808709    9.983706    ( 0.0000,  0.0000,  0.0000)
   2 Rb    13.973359    2.796641    9.984174    ( 0.0000,  0.0000,  0.0000)
   3 Rb     2.808709    8.385000    9.983706    ( 0.0000,  0.0000,  0.0000)
   4 Rb     8.385000    8.385000    9.983240    ( 0.0000,  0.0000,  0.0000)
   5 Rb    13.961291    8.385000    9.983706    ( 0.0000,  0.0000,  0.0000)
   6 Rb     2.796641   13.973359    9.984174    ( 0.0000,  0.0000,  0.0000)
   7 Rb     8.385000   13.961291    9.983706    ( 0.0000,  0.0000,  0.0000)
   8 Rb    13.973359   13.973359    9.984174    ( 0.0000,  0.0000,  0.0000)
   9 Rb    -0.000000    0.000000   12.812254    ( 0.0000,  0.0000,  0.0000)
  10 Rb     5.588569    0.000000   12.800274    ( 0.0000,  0.0000,  0.0000)
  11 Rb    11.181431    0.000000   12.800274    ( 0.0000,  0.0000,  0.0000)
  12 Rb    -0.000000    5.588569   12.800274    ( 0.0000,  0.0000,  0.0000)
  13 Rb     5.598449    5.598449   12.790433    ( 0.0000,  0.0000,  0.0000)
  14 Rb    11.171551    5.598449   12.790433    ( 0.0000,  0.0000,  0.0000)
  15 Rb     0.000000   11.181431   12.800274    ( 0.0000,  0.0000,  0.0000)
  16 Rb     5.598449   11.171551   12.790433    ( 0.0000,  0.0000,  0.0000)
  17 Rb    11.171551   11.171551   12.790433    ( 0.0000,  0.0000,  0.0000)
  18 Rb     2.786551    2.786551   15.594566    ( 0.0000,  0.0000,  0.0000)
  19 Rb     8.385000    2.796431   15.584725    ( 0.0000,  0.0000,  0.0000)
  20 Rb    13.983449    2.786551   15.594566    ( 0.0000,  0.0000,  0.0000)
  21 Rb     2.796431    8.385000   15.584725    ( 0.0000,  0.0000,  0.0000)
  22 Rb     8.385000    8.385000   15.572745    ( 0.0000,  0.0000,  0.0000)
  23 Rb    13.973569    8.385000   15.584725    ( 0.0000,  0.0000,  0.0000)
  24 Rb     2.786551   13.983449   15.594566    ( 0.0000,  0.0000,  0.0000)
  25 Rb     8.385000   13.973569   15.584725    ( 0.0000,  0.0000,  0.0000)
  26 Rb    13.983449   13.983449   15.594566    ( 0.0000,  0.0000,  0.0000)
  27 Rb    -0.000000   -0.000000   18.401759    ( 0.0000,  0.0000,  0.0000)
  28 Rb     5.576291    0.000000   18.401294    ( 0.0000,  0.0000,  0.0000)
  29 Rb    11.193709   -0.000000   18.401294    ( 0.0000,  0.0000,  0.0000)
  30 Rb    -0.000000    5.576291   18.401294    ( 0.0000,  0.0000,  0.0000)
  31 Rb     5.588359    5.588359   18.400825    ( 0.0000,  0.0000,  0.0000)
  32 Rb    11.181641    5.588359   18.400825    ( 0.0000,  0.0000,  0.0000)
  33 Rb    -0.000000   11.193709   18.401294    ( 0.0000,  0.0000,  0.0000)
  34 Rb     5.588359   11.181641   18.400825    ( 0.0000,  0.0000,  0.0000)
  35 Rb    11.181641   11.181641   18.400825    ( 0.0000,  0.0000,  0.0000)

Unit cell:
           periodic     x           y           z      points  spacing
  1. axis:    yes   16.770000    0.000000    0.000000   104     0.1612
  2. axis:    yes    0.000000   16.770000    0.000000   104     0.1612
  3. axis:    no     0.000000    0.000000   28.385000   176     0.1613

  Lengths:  16.770000  16.770000  28.385000
  Angles:   90.000000  90.000000  90.000000

Effective grid spacing dv^(1/3) = 0.1613

     iter     time        total  log10-change:
                         energy  eigst   dens
iter:   1 19:46:20 -3708.837741  -3.02
iter:   2 19:57:25 -3708.837957  -4.02  -3.54
iter:   3 20:08:20 -3708.838036c -4.53  -3.54
iter:   4 20:19:23 -3708.837928c -4.88  -3.50
Writing to output.gpw (mode='')

iter:   5 20:30:31 -3708.837912c -5.26  -3.72
iter:   6 20:41:24 -3708.837913c -5.33  -3.85
iter:   7 20:52:20 -3708.837877c -5.72  -3.86
iter:   8 21:03:35 -3708.837851c -5.70  -3.85
iter:   9 21:14:52 -3708.837857c -5.93  -4.19c
Writing to output.gpw (mode='')

iter:  10 21:26:13 -3708.837899c -6.25  -4.22c
iter:  11 21:37:38 -3708.837904c -6.32  -4.34c
iter:  12 21:48:38 -3708.837903c -6.41  -4.40c
iter:  13 21:59:43 -3708.837888c -6.69  -4.44c
iter:  14 22:10:50 -3708.837881c -6.80  -4.58c
Writing to output.gpw (mode='')

iter:  15 22:21:40 -3708.837874c -6.84  -4.70c
iter:  16 22:32:36 -3708.837873c -7.07  -4.80c
iter:  17 22:43:56 -3708.837873c -7.18  -4.83c
iter:  18 22:55:25 -3708.837871c -7.25  -4.98c
iter:  19 23:06:44 -3708.837870c -7.31  -5.00c
Writing to output.gpw (mode='')

iter:  20 23:17:43 -3708.837874c -7.40  -4.95c
iter:  21 23:28:51 -3708.837876c -7.65c -5.05c

Converged after 21 iterations.

Dipole moment: (-26.305048, -26.305048, -0.000142) |e|*Ang

Energy contributions relative to reference atoms: (reference = -2919720.687235)

Kinetic:       +331.301820
Potential:     -298.664540
External:        +0.000000
XC:            -3737.254857
Entropy (-ST):   -0.492724
Local:           -3.973937
--------------------------
Free energy:   -3709.084238
Extrapolated:  -3708.837876

Dipole-layer corrected work functions: 2.365360, 2.365451 eV

 Band  Eigenvalues  Occupancy
    0    -31.77393    2.00000
    1    -31.77386    2.00000
    2    -31.77381    2.00000
    3    -31.77381    2.00000
    4    -31.77373    2.00000
    5    -31.77373    2.00000
    6    -31.77369    2.00000
    7    -31.77361    2.00000
    8    -31.77351    2.00000
    9    -31.77349    2.00000
   10    -31.77343    2.00000
   11    -31.77342    2.00000
   12    -31.77339    2.00000
   13    -31.77337    2.00000
   14    -31.77332    2.00000
   15    -31.77330    2.00000
   16    -31.77093    2.00000
   17    -31.77085    2.00000
   18    -31.55005    2.00000
   19    -31.54960    2.00000
   20    -31.54918    2.00000
   21    -31.54887    2.00000
   22    -31.54849    2.00000
   23    -31.54832    2.00000
   24    -31.54814    2.00000
   25    -31.54778    2.00000
   26    -31.54758    2.00000
   27    -31.54743    2.00000
   28    -31.54735    2.00000
   29    -31.54729    2.00000
   30    -31.54699    2.00000
   31    -31.54690    2.00000
   32    -31.54657    2.00000
   33    -31.54644    2.00000
   34    -31.54593    2.00000
   35    -31.54567    2.00000
   36    -15.84269    2.00000
   37    -15.84263    2.00000
   38    -15.84263    2.00000
   39    -15.84222    2.00000
   40    -15.84213    2.00000
   41    -15.84183    2.00000
   42    -15.84182    2.00000
   43    -15.84155    2.00000
   44    -15.84133    2.00000
   45    -15.84108    2.00000
   46    -15.84098    2.00000
   47    -15.84080    2.00000
   48    -15.84053    2.00000
   49    -15.84023    2.00000
   50    -15.83954    2.00000
   51    -15.83942    2.00000
   52    -15.83744    2.00000
   53    -15.83734    2.00000
   54    -15.83467    2.00000
   55    -15.83460    2.00000
   56    -15.83445    2.00000
   57    -15.83437    2.00000
   58    -15.83390    2.00000
   59    -15.83384    2.00000
   60    -15.83376    2.00000
   61    -15.83369    2.00000
   62    -15.83338    2.00000
   63    -15.83301    2.00000
   64    -15.83275    2.00000
   65    -15.83259    2.00000
   66    -15.82744    2.00000
   67    -15.82743    2.00000
   68    -15.82719    2.00000
   69    -15.82718    2.00000
   70    -15.82677    2.00000
   71    -15.82628    2.00000
   72    -15.82619    2.00000
   73    -15.82607    2.00000
   74    -15.82535    2.00000
   75    -15.82530    2.00000
   76    -15.82517    2.00000
   77    -15.82511    2.00000
   78    -15.82006    2.00000
   79    -15.81987    2.00000
   80    -15.81978    2.00000
   81    -15.81975    2.00000
   82    -15.81881    2.00000
   83    -15.81870    2.00000
   84    -15.81864    2.00000
   85    -15.81857    2.00000
   86    -15.81721    2.00000
   87    -15.81718    2.00000
   88    -15.81710    2.00000
   89    -15.81709    2.00000
   90    -15.64184    2.00000
   91    -15.64118    2.00000
   92    -15.64108    2.00000
   93    -15.64045    2.00000
   94    -15.64031    2.00000
   95    -15.64011    2.00000
   96    -15.63999    2.00000
   97    -15.63981    2.00000
   98    -15.63908    2.00000
   99    -15.63867    2.00000
  100    -15.63856    2.00000
  101    -15.63725    2.00000
  102    -15.63724    2.00000
  103    -15.63629    2.00000
  104    -15.63275    2.00000
  105    -15.63243    2.00000
  106    -15.63112    2.00000
  107    -15.62306    2.00000
  108    -15.62246    2.00000
  109    -15.62220    2.00000
  110    -15.61741    2.00000
  111    -15.61728    2.00000
  112    -15.61700    2.00000
  113    -15.61550    2.00000
  114    -15.61543    2.00000
  115    -15.61297    2.00000
  116    -15.60889    2.00000
  117    -15.60880    2.00000
  118    -15.60689    2.00000
  119    -15.60668    2.00000
  120    -15.59965    2.00000
  121    -15.59957    2.00000
  122    -15.59956    2.00000
  123    -15.59588    2.00000
  124    -15.59274    2.00000
  125    -15.59200    2.00000
  126    -15.59158    2.00000
  127    -15.59134    2.00000
  128    -15.59046    2.00000
  129    -15.59029    2.00000
  130    -15.59000    2.00000
  131    -15.58996    2.00000
  132    -15.58973    2.00000
  133    -15.58967    2.00000
  134    -15.58927    2.00000
  135    -15.58918    2.00000
  136    -15.58886    2.00000
  137    -15.58862    2.00000
  138    -15.58854    2.00000
  139    -15.58764    2.00000
  140    -15.58716    2.00000
  141    -15.58704    2.00000
  142    -15.58641    2.00000
  143    -15.58445    2.00000
  144     -4.10237    2.00000
  145     -3.78182    2.00000
  146     -3.77872    2.00000
  147     -3.47141    2.00000
  148     -3.47033    2.00000
  149     -3.17621    2.00000
  150     -3.17382    2.00000
  151     -3.17348    2.00000
  152     -3.17109    2.00000
  153     -2.89148    1.99995
  154     -2.88938    1.99994
  155     -2.87495    1.99992
  156     -2.62412    1.98874
  157     -2.62168    1.98818
  158     -2.61059    1.98527
  159     -2.37547    1.10033
  160     -2.36193    0.96525
  161     -2.36055    0.95144
  162     -2.34891    0.83649
  163     -2.34643    0.81249
  164     -2.33191    0.67703
  165     -2.33017    0.66152
  166     -2.10872    0.01172
  167     -2.10615    0.01114
  168     -2.07179    0.00562
  169     -2.02953    0.00242
  170     -2.02938    0.00241
  171     -1.86987    0.00010
  172     -1.79908    0.00002
  173     -1.75289    0.00001
  174     -1.68640    0.00000
  175     -1.68571    0.00000
  176     -1.55904    0.00000
  177     -1.55777    0.00000
  178     -1.20219    0.00000
  179     -1.19132    0.00000

Fermi level: -2.36541

Gap: 0.014 eV
Transition (v -> c):
  (s=0, k=0, n=159, [0.25, 0.25, 0.00]) -> (s=0, k=0, n=160, [0.25, 0.25, 0.00])
Writing to output.gpw (mode='')


Forces in eV/Ang:
  0 Rb   -0.00061   -0.00061   -0.04690
  1 Rb    0.00000    0.02107   -0.07485
  2 Rb    0.00061   -0.00061   -0.04690
  3 Rb    0.02107    0.00000   -0.07485
  4 Rb    0.00000    0.00000   -0.10684
  5 Rb   -0.02107    0.00000   -0.07485
  6 Rb   -0.00061    0.00061   -0.04690
  7 Rb    0.00000   -0.02107   -0.07485
  8 Rb    0.00061    0.00061   -0.04690
  9 Rb    0.00000    0.00000    0.02095
 10 Rb    0.00042    0.00000    0.01236
 11 Rb   -0.00042    0.00000    0.01236
 12 Rb    0.00000    0.00042    0.01236
 13 Rb    0.01468    0.01468   -0.00140
 14 Rb   -0.01468    0.01468   -0.00140
 15 Rb    0.00000   -0.00042    0.01236
 16 Rb    0.01468   -0.01468   -0.00140
 17 Rb   -0.01468   -0.01468   -0.00140
 18 Rb   -0.01469   -0.01469    0.00155
 19 Rb    0.00000   -0.00043   -0.01222
 20 Rb    0.01469   -0.01469    0.00155
 21 Rb   -0.00043    0.00000   -0.01222
 22 Rb    0.00000    0.00000   -0.02079
 23 Rb    0.00043    0.00000   -0.01222
 24 Rb   -0.01469    0.01469    0.00155
 25 Rb    0.00000    0.00043   -0.01222
 26 Rb    0.01469    0.01469    0.00155
 27 Rb    0.00000    0.00000    0.10691
 28 Rb   -0.02107    0.00000    0.07492
 29 Rb    0.02107    0.00000    0.07492
 30 Rb    0.00000   -0.02107    0.07492
 31 Rb    0.00061    0.00061    0.04697
 32 Rb   -0.00061    0.00061    0.04697
 33 Rb    0.00000    0.02107    0.07492
 34 Rb    0.00061   -0.00061    0.04697
 35 Rb   -0.00061   -0.00061    0.04697

System changes: positions 

Initializing position-dependent things.

Density initialized from wave functions
           .----------------------------------------.  
          /|                                        |  
         / |                                        |  
        /  |                                        |  
       /   |                                        |  
      /    |                                        |  
     /     |                                        |  
    /      |                                        |  
   /       |                                        |  
  /        |                                        |  
 *         |                                        |  
 |         |                                        |  
 |         |                                        |  
 |         |                                        |  
 |         |                                        |  
 |         |                                        |  
 |      Rb |         Rb            Rb               |  
 |         |    Rb            Rb            Rb      |  
 |         |                                        |  
 |  Rb     |      Rb            Rb                  |  
 |         |                                        |  
 |         | Rb            Rb           Rb          |  
 Rb        |   Rb           Rb                      |  
 |      Rb |         Rb            Rb               |  
 |       Rb|    Rb     Rb     Rb     Rb    Rb       |  
 |         |                                        |  
 |  Rb     |      Rb            Rb                  |  
 |         |                                        |  
 |         | Rb            Rb           Rb          |  
 Rb        |   Rb           Rb                      |  
 |         |                                        |  
 |        Rb           Rb            Rb             |  
 |         |                                        |  
 |         |                                        |  
 |         |                                        |  
 |         .----------------------------------------.  
 |        /                                        /   
 |       /                                        /    
 |      /                                        /     
 |     /                                        /      
 |    /                                        /       
 |   /                                        /        
 |  /                                        /         
 | /                                        /          
 |/                                        /           
 *----------------------------------------*            

Positions:
   0 Rb     2.797323    2.797323    9.976819    ( 0.0000,  0.0000,  0.0000)
   1 Rb     8.385000    2.814799    9.975775    ( 0.0000,  0.0000,  0.0000)
   2 Rb    13.972677    2.797323    9.976819    ( 0.0000,  0.0000,  0.0000)
   3 Rb     2.814799    8.385000    9.975775    ( 0.0000,  0.0000,  0.0000)
   4 Rb     8.385000    8.385000    9.974664    ( 0.0000,  0.0000,  0.0000)
   5 Rb    13.955201    8.385000    9.975775    ( 0.0000,  0.0000,  0.0000)
   6 Rb     2.797323   13.972677    9.976819    ( 0.0000,  0.0000,  0.0000)
   7 Rb     8.385000   13.955201    9.975775    ( 0.0000,  0.0000,  0.0000)
   8 Rb    13.972677   13.972677    9.976819    ( 0.0000,  0.0000,  0.0000)
   9 Rb    -0.000000    0.000000   12.819843    ( 0.0000,  0.0000,  0.0000)
  10 Rb     5.587969    0.000000   12.802682    ( 0.0000,  0.0000,  0.0000)
  11 Rb    11.182031    0.000000   12.802682    ( 0.0000,  0.0000,  0.0000)
  12 Rb    -0.000000    5.587969   12.802682    ( 0.0000,  0.0000,  0.0000)
  13 Rb     5.602227    5.602227   12.788479    ( 0.0000,  0.0000,  0.0000)
  14 Rb    11.167773    5.602227   12.788479    ( 0.0000,  0.0000,  0.0000)
  15 Rb     0.000000   11.182031   12.802682    ( 0.0000,  0.0000,  0.0000)
  16 Rb     5.602227   11.167773   12.788479    ( 0.0000,  0.0000,  0.0000)
  17 Rb    11.167773   11.167773   12.788479    ( 0.0000,  0.0000,  0.0000)
  18 Rb     2.782773    2.782773   15.596522    ( 0.0000,  0.0000,  0.0000)
  19 Rb     8.385000    2.797031   15.582319    ( 0.0000,  0.0000,  0.0000)
  20 Rb    13.987227    2.782773   15.596522    ( 0.0000,  0.0000,  0.0000)
  21 Rb     2.797031    8.385000   15.582319    ( 0.0000,  0.0000,  0.0000)
  22 Rb     8.385000    8.385000   15.565159    ( 0.0000,  0.0000,  0.0000)
  23 Rb    13.972969    8.385000   15.582319    ( 0.0000,  0.0000,  0.0000)
  24 Rb     2.782773   13.987227   15.596522    ( 0.0000,  0.0000,  0.0000)
  25 Rb     8.385000   13.972969   15.582319    ( 0.0000,  0.0000,  0.0000)
  26 Rb    13.987227   13.987227   15.596522    ( 0.0000,  0.0000,  0.0000)
  27 Rb    -0.000000   -0.000000   18.410336    ( 0.0000,  0.0000,  0.0000)
  28 Rb     5.570201    0.000000   18.409225    ( 0.0000,  0.0000,  0.0000)
  29 Rb    11.199799   -0.000000   18.409225    ( 0.0000,  0.0000,  0.0000)
  30 Rb    -0.000000    5.570201   18.409225    ( 0.0000,  0.0000,  0.0000)
  31 Rb     5.587677    5.587677   18.408181    ( 0.0000,  0.0000,  0.0000)
  32 Rb    11.182323    5.587677   18.408181    ( 0.0000,  0.0000,  0.0000)
  33 Rb    -0.000000   11.199799   18.409225    ( 0.0000,  0.0000,  0.0000)
  34 Rb     5.587677   11.182323   18.408181    ( 0.0000,  0.0000,  0.0000)
  35 Rb    11.182323   11.182323   18.408181    ( 0.0000,  0.0000,  0.0000)

Unit cell:
           periodic     x           y           z      points  spacing
  1. axis:    yes   16.770000    0.000000    0.000000   104     0.1612
  2. axis:    yes    0.000000   16.770000    0.000000   104     0.1612
  3. axis:    no     0.000000    0.000000   28.385000   176     0.1613

  Lengths:  16.770000  16.770000  28.385000
  Angles:   90.000000  90.000000  90.000000

Effective grid spacing dv^(1/3) = 0.1613

     iter     time        total  log10-change:
                         energy  eigst   dens
iter:   1 23:40:37 -3708.848178  -3.02
iter:   2 23:51:38 -3708.848385  -4.03  -3.55
iter:   3 00:02:47 -3708.848441c -4.54  -3.55
iter:   4 00:14:03 -3708.848416c -4.87  -3.53
Writing to output.gpw (mode='')

iter:   5 00:25:07 -3708.848357c -5.25  -3.59
iter:   6 00:36:20 -3708.848353c -5.37  -3.78
iter:   7 00:47:45 -3708.848310c -5.66  -3.83
iter:   8 00:58:53 -3708.848293c -5.90  -3.86
iter:   9 01:10:01 -3708.848317c -5.95  -3.98
Writing to output.gpw (mode='')

iter:  10 01:21:12 -3708.848336c -6.07  -4.03c
iter:  11 01:32:19 -3708.848330c -6.32  -4.22c
iter:  12 01:43:39 -3708.848304c -6.34  -4.26c
iter:  13 01:55:05 -3708.848295c -6.69  -4.41c
iter:  14 02:06:19 -3708.848292c -6.67  -4.55c
Writing to output.gpw (mode='')

iter:  15 02:17:33 -3708.848291c -6.82  -4.56c
iter:  16 02:28:26 -3708.848292c -7.01  -4.59c
iter:  17 02:39:25 -3708.848291c -7.11  -4.61c
iter:  18 02:50:47 -3708.848297c -7.20  -4.64c
iter:  19 03:01:52 -3708.848304c -7.35  -4.68c
Writing to output.gpw (mode='')

iter:  20 03:12:58 -3708.848301c -7.42c -4.73c

Converged after 20 iterations.

Dipole moment: (-26.305139, -26.305139, 0.000041) |e|*Ang

Energy contributions relative to reference atoms: (reference = -2919720.687235)

Kinetic:       +330.828879
Potential:     -298.300763
External:        +0.000000
XC:            -3737.161659
Entropy (-ST):   -0.492905
Local:           -3.968306
--------------------------
Free energy:   -3709.094754
Extrapolated:  -3708.848301

Dipole-layer corrected work functions: 2.365969, 2.365943 eV

 Band  Eigenvalues  Occupancy
    0    -31.77509    2.00000
    1    -31.77507    2.00000
    2    -31.77497    2.00000
    3    -31.77496    2.00000
    4    -31.77495    2.00000
    5    -31.77494    2.00000
    6    -31.77484    2.00000
    7    -31.77482    2.00000
    8    -31.77452    2.00000
    9    -31.77451    2.00000
   10    -31.77450    2.00000
   11    -31.77449    2.00000
   12    -31.77441    2.00000
   13    -31.77440    2.00000
   14    -31.77439    2.00000
   15    -31.77437    2.00000
   16    -31.77025    2.00000
   17    -31.77023    2.00000
   18    -31.55172    2.00000
   19    -31.55136    2.00000
   20    -31.55073    2.00000
   21    -31.55051    2.00000
   22    -31.55021    2.00000
   23    -31.55009    2.00000
   24    -31.54968    2.00000
   25    -31.54919    2.00000
   26    -31.54915    2.00000
   27    -31.54891    2.00000
   28    -31.54883    2.00000
   29    -31.54871    2.00000
   30    -31.54838    2.00000
   31    -31.54820    2.00000
   32    -31.54795    2.00000
   33    -31.54785    2.00000
   34    -31.54715    2.00000
   35    -31.54694    2.00000
   36    -15.84368    2.00000
   37    -15.84361    2.00000
   38    -15.84361    2.00000
   39    -15.84319    2.00000
   40    -15.84311    2.00000
   41    -15.84281    2.00000
   42    -15.84281    2.00000
   43    -15.84254    2.00000
   44    -15.84235    2.00000
   45    -15.84205    2.00000
   46    -15.84193    2.00000
   47    -15.84179    2.00000
   48    -15.84155    2.00000
   49    -15.84125    2.00000
   50    -15.84041    2.00000
   51    -15.84034    2.00000
   52    -15.83737    2.00000
   53    -15.83731    2.00000
   54    -15.83550    2.00000
   55    -15.83550    2.00000
   56    -15.83532    2.00000
   57    -15.83529    2.00000
   58    -15.83481    2.00000
   59    -15.83466    2.00000
   60    -15.83464    2.00000
   61    -15.83456    2.00000
   62    -15.83400    2.00000
   63    -15.83366    2.00000
   64    -15.83345    2.00000
   65    -15.83332    2.00000
   66    -15.82835    2.00000
   67    -15.82827    2.00000
   68    -15.82810    2.00000
   69    -15.82805    2.00000
   70    -15.82760    2.00000
   71    -15.82715    2.00000
   72    -15.82707    2.00000
   73    -15.82701    2.00000
   74    -15.82608    2.00000
   75    -15.82607    2.00000
   76    -15.82592    2.00000
   77    -15.82589    2.00000
   78    -15.82091    2.00000
   79    -15.82072    2.00000
   80    -15.82068    2.00000
   81    -15.82066    2.00000
   82    -15.81963    2.00000
   83    -15.81958    2.00000
   84    -15.81950    2.00000
   85    -15.81949    2.00000
   86    -15.81745    2.00000
   87    -15.81741    2.00000
   88    -15.81739    2.00000
   89    -15.81737    2.00000
   90    -15.64357    2.00000
   91    -15.64277    2.00000
   92    -15.64255    2.00000
   93    -15.64221    2.00000
   94    -15.64187    2.00000
   95    -15.64173    2.00000
   96    -15.64151    2.00000
   97    -15.64132    2.00000
   98    -15.64053    2.00000
   99    -15.64032    2.00000
  100    -15.64014    2.00000
  101    -15.63872    2.00000
  102    -15.63867    2.00000
  103    -15.63777    2.00000
  104    -15.63440    2.00000
  105    -15.63382    2.00000
  106    -15.63271    2.00000
  107    -15.62457    2.00000
  108    -15.62400    2.00000
  109    -15.62375    2.00000
  110    -15.61901    2.00000
  111    -15.61876    2.00000
  112    -15.61842    2.00000
  113    -15.61698    2.00000
  114    -15.61692    2.00000
  115    -15.61440    2.00000
  116    -15.61044    2.00000
  117    -15.61023    2.00000
  118    -15.60844    2.00000
  119    -15.60806    2.00000
  120    -15.60110    2.00000
  121    -15.60107    2.00000
  122    -15.60100    2.00000
  123    -15.59732    2.00000
  124    -15.59432    2.00000
  125    -15.59335    2.00000
  126    -15.59316    2.00000
  127    -15.59277    2.00000
  128    -15.59200    2.00000
  129    -15.59188    2.00000
  130    -15.59154    2.00000
  131    -15.59136    2.00000
  132    -15.59107    2.00000
  133    -15.59096    2.00000
  134    -15.59070    2.00000
  135    -15.59069    2.00000
  136    -15.59012    2.00000
  137    -15.58990    2.00000
  138    -15.58968    2.00000
  139    -15.58918    2.00000
  140    -15.58858    2.00000
  141    -15.58822    2.00000
  142    -15.58773    2.00000
  143    -15.58582    2.00000
  144     -4.10190    2.00000
  145     -3.78211    2.00000
  146     -3.77764    2.00000
  147     -3.47138    2.00000
  148     -3.46998    2.00000
  149     -3.17647    2.00000
  150     -3.17448    2.00000
  151     -3.17257    2.00000
  152     -3.17058    2.00000
  153     -2.89164    1.99995
  154     -2.88861    1.99994
  155     -2.87512    1.99992
  156     -2.62493    1.98880
  157     -2.62134    1.98797
  158     -2.61299    1.98580
  159     -2.37514    1.09161
  160     -2.36194    0.95983
  161     -2.35992    0.93974
  162     -2.35159    0.85727
  163     -2.34804    0.82277
  164     -2.33254    0.67777
  165     -2.33003    0.65541
  166     -2.10897    0.01165
  167     -2.10531    0.01083
  168     -2.07366    0.00577
  169     -2.03030    0.00243
  170     -2.03010    0.00242
  171     -1.86989    0.00010
  172     -1.80147    0.00003
  173     -1.75285    0.00001
  174     -1.68724    0.00000
  175     -1.68627    0.00000
  176     -1.56282    0.00000
  177     -1.56072    0.00000
  178     -1.24416    0.00000
  179     -1.19472    0.00000

Fermi level: -2.36596

Gap: 0.013 eV
Transition (v -> c):
  (s=0, k=0, n=159, [0.25, 0.25, 0.00]) -> (s=0, k=0, n=160, [0.25, 0.25, 0.00])

Forces in eV/Ang:
  0 Rb   -0.00614   -0.00614   -0.03614
  1 Rb    0.00000    0.00466   -0.07098
  2 Rb    0.00614   -0.00614   -0.03614
  3 Rb    0.00466    0.00000   -0.07098
  4 Rb    0.00000    0.00000   -0.12654
  5 Rb   -0.00466    0.00000   -0.07098
  6 Rb   -0.00614    0.00614   -0.03614
  7 Rb    0.00000   -0.00466   -0.07098
  8 Rb    0.00614    0.00614   -0.03614
  9 Rb    0.00000    0.00000   -0.00061
 10 Rb    0.00275    0.00000    0.00775
 11 Rb   -0.00275    0.00000    0.00775
 12 Rb    0.00000    0.00275    0.00775
 13 Rb    0.00213    0.00213    0.00824
 14 Rb   -0.00213    0.00213    0.00824
 15 Rb    0.00000   -0.00275    0.00775
 16 Rb    0.00213   -0.00213    0.00824
 17 Rb   -0.00213   -0.00213    0.00824
 18 Rb   -0.00213   -0.00213   -0.00822
 19 Rb    0.00000   -0.00276   -0.00773
 20 Rb    0.00213   -0.00213   -0.00822
 21 Rb   -0.00276    0.00000   -0.00773
 22 Rb    0.00000    0.00000    0.00065
 23 Rb    0.00276    0.00000   -0.00773
 24 Rb   -0.00213    0.00213   -0.00822
 25 Rb    0.00000    0.00276   -0.00773
 26 Rb    0.00213    0.00213   -0.00822
 27 Rb    0.00000    0.00000    0.12654
 28 Rb   -0.00466    0.00000    0.07100
 29 Rb    0.00466    0.00000    0.07100
 30 Rb    0.00000   -0.00466    0.07100
 31 Rb    0.00615    0.00615    0.03616
 32 Rb   -0.00615    0.00615    0.03616
 33 Rb    0.00000    0.00466    0.07100
 34 Rb    0.00615   -0.00615    0.03616
 35 Rb   -0.00615   -0.00615    0.03616

System changes: positions 

Initializing position-dependent things.

Density initialized from wave functions
           .----------------------------------------.  
          /|                                        |  
         / |                                        |  
        /  |                                        |  
       /   |                                        |  
      /    |                                        |  
     /     |                                        |  
[...]
 |        /                                        /   
 |       /                                        /    
 |      /                                        /     
 |     /                                        /      
 |    /                                        /       
 |   /                                        /        
 |  /                                        /         
 | /                                        /          
 |/                                        /           
 *----------------------------------------*            

Positions:
   0 Rb     2.756169    2.756169    9.739718    ( 0.0000,  0.0000,  0.0000)
   1 Rb     8.385000    2.865554    9.750333    ( 0.0000,  0.0000,  0.0000)
   2 Rb    14.013831    2.756169    9.739718    ( 0.0000,  0.0000,  0.0000)
   3 Rb     2.865554    8.385000    9.750333    ( 0.0000,  0.0000,  0.0000)
   4 Rb     8.385000    8.385000    9.608056    ( 0.0000,  0.0000,  0.0000)
   5 Rb    13.904446    8.385000    9.750333    ( 0.0000,  0.0000,  0.0000)
   6 Rb     2.756169   14.013831    9.739718    ( 0.0000,  0.0000,  0.0000)
   7 Rb     8.385000   13.904446    9.750333    ( 0.0000,  0.0000,  0.0000)
   8 Rb    14.013831   14.013831    9.739718    ( 0.0000,  0.0000,  0.0000)
   9 Rb     0.000000    0.000000   12.792013    ( 0.0000,  0.0000,  0.0000)
  10 Rb     5.602020   -0.000000   12.778042    ( 0.0000,  0.0000,  0.0000)
  11 Rb    11.167980   -0.000000   12.778042    ( 0.0000,  0.0000,  0.0000)
  12 Rb    -0.000000    5.602020   12.778042    ( 0.0000,  0.0000,  0.0000)
  13 Rb     5.613581    5.613581   12.794408    ( 0.0000,  0.0000,  0.0000)
  14 Rb    11.156419    5.613581   12.794408    ( 0.0000,  0.0000,  0.0000)
  15 Rb    -0.000000   11.167980   12.778042    ( 0.0000,  0.0000,  0.0000)
  16 Rb     5.613581   11.156419   12.794408    ( 0.0000,  0.0000,  0.0000)
  17 Rb    11.156419   11.156419   12.794408    ( 0.0000,  0.0000,  0.0000)
  18 Rb     2.771469    2.771469   15.590574    ( 0.0000,  0.0000,  0.0000)
  19 Rb     8.385000    2.783145   15.606925    ( 0.0000,  0.0000,  0.0000)
  20 Rb    13.998531    2.771469   15.590574    ( 0.0000,  0.0000,  0.0000)
  21 Rb     2.783145    8.385000   15.606925    ( 0.0000,  0.0000,  0.0000)
  22 Rb     8.385000    8.385000   15.593186    ( 0.0000,  0.0000,  0.0000)
  23 Rb    13.986855    8.385000   15.606925    ( 0.0000,  0.0000,  0.0000)
  24 Rb     2.771469   13.998531   15.590574    ( 0.0000,  0.0000,  0.0000)
  25 Rb     8.385000   13.986855   15.606925    ( 0.0000,  0.0000,  0.0000)
  26 Rb    13.998531   13.998531   15.590574    ( 0.0000,  0.0000,  0.0000)
  27 Rb    -0.000000   -0.000000   18.777105    ( 0.0000,  0.0000,  0.0000)
  28 Rb     5.519882    0.000000   18.634770    ( 0.0000,  0.0000,  0.0000)
  29 Rb    11.250118   -0.000000   18.634770    ( 0.0000,  0.0000,  0.0000)
  30 Rb    -0.000000    5.519882   18.634770    ( 0.0000,  0.0000,  0.0000)
  31 Rb     5.628997    5.628997   18.645388    ( 0.0000,  0.0000,  0.0000)
  32 Rb    11.141003    5.628997   18.645388    ( 0.0000,  0.0000,  0.0000)
  33 Rb    -0.000000   11.250118   18.634770    ( 0.0000,  0.0000,  0.0000)
  34 Rb     5.628997   11.141003   18.645388    ( 0.0000,  0.0000,  0.0000)
  35 Rb    11.141003   11.141003   18.645388    ( 0.0000,  0.0000,  0.0000)

Unit cell:
           periodic     x           y           z      points  spacing
  1. axis:    yes   16.770000    0.000000    0.000000   104     0.1612
  2. axis:    yes    0.000000   16.770000    0.000000   104     0.1612
  3. axis:    no     0.000000    0.000000   28.385000   176     0.1613

  Lengths:  16.770000  16.770000  28.385000
  Angles:   90.000000  90.000000  90.000000

Effective grid spacing dv^(1/3) = 0.1613

     iter     time        total  log10-change:
                         energy  eigst   dens
iter:   1 13:58:53 -3709.046387  -3.10
iter:   2 14:09:57 -3709.046590  -4.08  -3.53
iter:   3 14:20:29 -3709.046642c -4.57  -3.54
iter:   4 14:31:05 -3709.046664c -4.92  -3.55
Writing to output.gpw (mode='')

iter:   5 14:41:03 -3709.046750c -5.19  -3.54
iter:   6 14:52:03 -3709.046760c -5.56  -3.75
iter:   7 15:01:27 -3709.046733c -5.70  -3.77
iter:   8 15:12:19 -3709.046747c -5.66  -3.74
iter:   9 15:20:08 -3709.046907c -5.61  -3.67
Writing to output.gpw (mode='')

iter:  10 15:28:21 -3709.046747c -5.64  -3.70
iter:  11 15:38:30 -3709.046697c -6.18  -3.82
iter:  12 15:49:38 -3709.046714c -5.91  -3.89
iter:  13 15:57:58 -3709.046653c -6.02  -4.16c
iter:  14 16:01:40 -3709.046686c -6.11  -4.29c
Writing to output.gpw (mode='')

iter:  15 16:11:30 -3709.046695c -6.45  -4.35c
iter:  16 16:21:50 -3709.046715c -6.63  -4.39c
iter:  17 16:32:39 -3709.046731c -6.75  -4.46c
iter:  18 16:43:49 -3709.046730c -7.00  -4.49c
iter:  19 16:53:59 -3709.046732c -7.03  -4.60c
Writing to output.gpw (mode='')

iter:  20 17:05:02 -3709.046717c -7.29  -4.65c
iter:  21 17:15:35 -3709.046712c -7.35  -4.80c
iter:  22 17:26:03 -3709.046713c -7.48c -4.91c

Converged after 22 iterations.

Dipole moment: (-26.295663, -26.295663, 0.000065) |e|*Ang

Energy contributions relative to reference atoms: (reference = -2919720.687235)

Kinetic:       +320.816649
Potential:     -291.119691
External:        +0.000000
XC:            -3734.568548
Entropy (-ST):   -0.464398
Local:           -3.942924
--------------------------
Free energy:   -3709.278912
Extrapolated:  -3709.046713

Dipole-layer corrected work functions: 2.382809, 2.382767 eV

 Band  Eigenvalues  Occupancy
    0    -31.80809    2.00000
    1    -31.80808    2.00000
    2    -31.80804    2.00000
    3    -31.80804    2.00000
    4    -31.80800    2.00000
    5    -31.80800    2.00000
    6    -31.80796    2.00000
    7    -31.80796    2.00000
    8    -31.79912    2.00000
    9    -31.79910    2.00000
   10    -31.79897    2.00000
   11    -31.79897    2.00000
   12    -31.79895    2.00000
   13    -31.79895    2.00000
   14    -31.79882    2.00000
   15    -31.79880    2.00000
   16    -31.79434    2.00000
   17    -31.79421    2.00000
   18    -31.60078    2.00000
   19    -31.60053    2.00000
   20    -31.59996    2.00000
   21    -31.59981    2.00000
   22    -31.59935    2.00000
   23    -31.59931    2.00000
   24    -31.59929    2.00000
   25    -31.59923    2.00000
   26    -31.59845    2.00000
   27    -31.59839    2.00000
   28    -31.59638    2.00000
   29    -31.59635    2.00000
   30    -31.59626    2.00000
   31    -31.59612    2.00000
   32    -31.59549    2.00000
   33    -31.59548    2.00000
   34    -31.59541    2.00000
   35    -31.59525    2.00000
   36    -15.87450    2.00000
   37    -15.87411    2.00000
   38    -15.87405    2.00000
   39    -15.87383    2.00000
   40    -15.87363    2.00000
   41    -15.87351    2.00000
   42    -15.87338    2.00000
   43    -15.87328    2.00000
   44    -15.86630    2.00000
   45    -15.86619    2.00000
   46    -15.86553    2.00000
   47    -15.86548    2.00000
   48    -15.86541    2.00000
   49    -15.86534    2.00000
   50    -15.86392    2.00000
   51    -15.86385    2.00000
   52    -15.86204    2.00000
   53    -15.86196    2.00000
   54    -15.86195    2.00000
   55    -15.86185    2.00000
   56    -15.86105    2.00000
   57    -15.86092    2.00000
   58    -15.86086    2.00000
   59    -15.86078    2.00000
   60    -15.86064    2.00000
   61    -15.86051    2.00000
   62    -15.86034    2.00000
   63    -15.86019    2.00000
   64    -15.86002    2.00000
   65    -15.86002    2.00000
   66    -15.85553    2.00000
   67    -15.85546    2.00000
   68    -15.85542    2.00000
   69    -15.85537    2.00000
   70    -15.85218    2.00000
   71    -15.85197    2.00000
   72    -15.85153    2.00000
   73    -15.85142    2.00000
   74    -15.85078    2.00000
   75    -15.85075    2.00000
   76    -15.85070    2.00000
   77    -15.85062    2.00000
   78    -15.84307    2.00000
   79    -15.84301    2.00000
   80    -15.84297    2.00000
   81    -15.84292    2.00000
   82    -15.84225    2.00000
   83    -15.84223    2.00000
   84    -15.84157    2.00000
   85    -15.84154    2.00000
   86    -15.84010    2.00000
   87    -15.84010    2.00000
   88    -15.83997    2.00000
   89    -15.83997    2.00000
   90    -15.69036    2.00000
   91    -15.68925    2.00000
   92    -15.68871    2.00000
   93    -15.68844    2.00000
   94    -15.68842    2.00000
   95    -15.68792    2.00000
   96    -15.68778    2.00000
   97    -15.68742    2.00000
   98    -15.68712    2.00000
   99    -15.68650    2.00000
  100    -15.68523    2.00000
  101    -15.68402    2.00000
  102    -15.68376    2.00000
  103    -15.68309    2.00000
  104    -15.68059    2.00000
  105    -15.67942    2.00000
  106    -15.67938    2.00000
  107    -15.67101    2.00000
  108    -15.67042    2.00000
  109    -15.67028    2.00000
  110    -15.66565    2.00000
  111    -15.66531    2.00000
  112    -15.66412    2.00000
  113    -15.66333    2.00000
  114    -15.66293    2.00000
  115    -15.65975    2.00000
  116    -15.65708    2.00000
  117    -15.65657    2.00000
  118    -15.65499    2.00000
  119    -15.65446    2.00000
  120    -15.64796    2.00000
  121    -15.64784    2.00000
  122    -15.64767    2.00000
  123    -15.64308    2.00000
  124    -15.64142    2.00000
  125    -15.64049    2.00000
  126    -15.64013    2.00000
  127    -15.63941    2.00000
  128    -15.63915    2.00000
  129    -15.63889    2.00000
  130    -15.63888    2.00000
  131    -15.63848    2.00000
  132    -15.63845    2.00000
  133    -15.63815    2.00000
  134    -15.63792    2.00000
  135    -15.63732    2.00000
  136    -15.63717    2.00000
  137    -15.63710    2.00000
  138    -15.63665    2.00000
  139    -15.63658    2.00000
  140    -15.63655    2.00000
  141    -15.63569    2.00000
  142    -15.63520    2.00000
  143    -15.63358    2.00000
  144     -4.08278    2.00000
  145     -3.76650    2.00000
  146     -3.75991    2.00000
  147     -3.47745    2.00000
  148     -3.45494    2.00000
  149     -3.18823    2.00000
  150     -3.17241    2.00000
  151     -3.16403    2.00000
  152     -3.15799    2.00000
  153     -2.88466    1.99991
  154     -2.88205    1.99991
  155     -2.87171    1.99989
  156     -2.68924    1.99565
  157     -2.63818    1.98798
  158     -2.62529    1.98447
  159     -2.42868    1.42922
  160     -2.40545    1.22283
  161     -2.36102    0.78570
  162     -2.35142    0.69619
  163     -2.34880    0.67265
  164     -2.34523    0.64118
  165     -2.33454    0.55177
  166     -2.13522    0.01405
  167     -2.09724    0.00660
  168     -2.09118    0.00585
  169     -2.06017    0.00315
  170     -2.05528    0.00286
  171     -1.87992    0.00009
  172     -1.86605    0.00006
  173     -1.74957    0.00001
  174     -1.71529    0.00000
  175     -1.71273    0.00000
  176     -1.65973    0.00000
  177     -1.64862    0.00000
  178     -1.63158    0.00000
  179     -1.50683    0.00000

Fermi level: -2.38279

Gap: 0.044 eV
Transition (v -> c):
  (s=0, k=0, n=160, [0.25, 0.25, 0.00]) -> (s=0, k=0, n=161, [0.25, 0.25, 0.00])
Writing to output.gpw (mode='')


Forces in eV/Ang:
  0 Rb    0.01530    0.01530    0.00774
  1 Rb    0.00000   -0.01230   -0.02292
  2 Rb   -0.01530    0.01530    0.00774
  3 Rb   -0.01230    0.00000   -0.02292
  4 Rb    0.00000    0.00000   -0.03206
  5 Rb    0.01230    0.00000   -0.02292
  6 Rb    0.01530   -0.01530    0.00774
  7 Rb    0.00000    0.01230   -0.02292
  8 Rb   -0.01530   -0.01530    0.00774
  9 Rb    0.00000    0.00000    0.04117
 10 Rb   -0.04115    0.00000    0.00576
 11 Rb    0.04115    0.00000    0.00576
 12 Rb    0.00000   -0.04115    0.00576
 13 Rb   -0.00957   -0.00957   -0.01229
 14 Rb    0.00957   -0.00957   -0.01229
 15 Rb    0.00000    0.04115    0.00576
 16 Rb   -0.00957    0.00957   -0.01229
 17 Rb    0.00957    0.00957   -0.01229
 18 Rb    0.00953    0.00953    0.01247
 19 Rb    0.00000    0.04101   -0.00556
 20 Rb   -0.00953    0.00953    0.01247
 21 Rb    0.04101    0.00000   -0.00556
 22 Rb    0.00000    0.00000   -0.04160
 23 Rb   -0.04101    0.00000   -0.00556
 24 Rb    0.00953   -0.00953    0.01247
 25 Rb    0.00000   -0.04101   -0.00556
 26 Rb   -0.00953   -0.00953    0.01247
 27 Rb    0.00000    0.00000    0.03162
 28 Rb    0.01212    0.00000    0.02300
 29 Rb   -0.01212    0.00000    0.02300
 30 Rb    0.00000    0.01212    0.02300
 31 Rb   -0.01542   -0.01542   -0.00821
 32 Rb    0.01542   -0.01542   -0.00821
 33 Rb    0.00000   -0.01212    0.02300
 34 Rb   -0.01542    0.01542   -0.00821
 35 Rb    0.01542    0.01542   -0.00821

Timing:                                      incl.     excl.
-------------------------------------------------------------------
Density initialized from wave functions:   166.026    34.999   0.0% |
 Symmetrize density:                       131.027   131.027   0.0% |
Forces:                                    436.747   436.747   0.1% |
Hamiltonian:                              9636.668     0.008   0.0% |
 Atomic:                                    19.629     2.813   0.0% |
  XC Correction:                            16.815    16.815   0.0% |
 Calculate atomic Hamiltonians:              8.716     8.716   0.0% |
 Communicate:                               22.844    22.844   0.0% |
 Hartree integrate/restrict:                 7.702     7.702   0.0% |
 Initialize Hamiltonian:                     0.000     0.000   0.0% |
 Poisson:                                  105.411    38.858   0.0% |
  Communicate from 1D:                      12.178    12.178   0.0% |
  Communicate from 2D:                      14.752    14.752   0.0% |
  Communicate to 1D:                         8.192     8.192   0.0% |
  Communicate to 2D:                        15.547    15.547   0.0% |
  FFT 1D:                                    7.806     7.806   0.0% |
  FFT 2D:                                    8.079     8.079   0.0% |
 XC 3D grid:                              9471.615   369.575   0.1% |
  VdW-DF integral:                        9102.040    29.779   0.0% |
   Convolution:                            820.254   820.254   0.1% |
   FFT:                                    189.624   189.624   0.0% |
   gather:                                6291.633  6291.633   1.1% |
   hmm1:                                   159.904   159.904   0.0% |
   hmm2:                                   216.378   216.378   0.0% |
   iFFT:                                   179.004   179.004   0.0% |
   potential:                             1192.515     6.242   0.0% |
    collect:                               196.852   196.852   0.0% |
    p1:                                    460.848   460.848   0.1% |
    p2:                                    319.145   319.145   0.1% |
    sum:                                   209.428   209.428   0.0% |
   splines:                                 22.949    22.949   0.0% |
 vbar:                                       0.743     0.743   0.0% |
LCAO initialization:                        12.000     0.087   0.0% |
 LCAO eigensolver:                           0.372     0.001   0.0% |
  Calculate projections:                     0.000     0.000   0.0% |
  DenseAtomicCorrection:                     0.000     0.000   0.0% |
  Distribute overlap matrix:                 0.228     0.228   0.0% |
  Orbital Layouts:                           0.138     0.138   0.0% |
  Potential matrix:                          0.002     0.002   0.0% |
  Sum over cells:                            0.002     0.002   0.0% |
 LCAO to grid:                              11.083    11.083   0.0% |
 Set positions (LCAO WFS):                   0.458     0.349   0.0% |
  Basic WFS set positions:                   0.050     0.050   0.0% |
  Basis functions set positions:             0.001     0.001   0.0% |
  P tci:                                     0.000     0.000   0.0% |
  ST tci:                                    0.011     0.011   0.0% |
  mktci:                                     0.047     0.047   0.0% |
Redistribute:                                0.054     0.054   0.0% |
SCF-cycle:                               566057.646   442.938   0.1% |
 Davidson:                               389216.478 176205.813  30.5% |-----------|
  Apply hamiltonian:                     15056.890 15056.890   2.6% ||
  Subspace diag:                         36289.648     0.237   0.0% |
   calc_h_matrix:                        12676.017  6041.752   1.0% |
    Apply hamiltonian:                    6634.265  6634.265   1.1% |
   diagonalize:                           1058.637  1058.637   0.2% |
   rotate_psi:                           22554.756 22554.756   3.9% |-|
  calc. matrices:                        93558.998 65903.369  11.4% |----|
   Apply hamiltonian:                    27655.629 27655.629   4.8% |-|
  diagonalize:                            1311.890  1311.890   0.2% |
  rotate_psi:                            66793.238 66793.238  11.6% |----|
 Density:                                 3232.750     0.033   0.0% |
  Atomic density matrices:                  20.928    20.928   0.0% |
  Mix:                                     312.615   312.615   0.1% |
  Multipole moments:                         7.852     7.852   0.0% |
  Pseudo density:                         2891.322   436.422   0.1% |
   Symmetrize density:                    2454.900  2454.900   0.4% |
 Hamiltonian:                            172239.838     0.215   0.0% |
  Atomic:                                  344.282    48.943   0.0% |
   XC Correction:                          295.339   295.339   0.1% |
  Calculate atomic Hamiltonians:           151.121   151.121   0.0% |
  Communicate:                             411.770   411.770   0.1% |
  Hartree integrate/restrict:              143.328   143.328   0.0% |
  Poisson:                                1863.345   702.237   0.1% |
   Communicate from 1D:                    238.618   238.618   0.0% |
   Communicate from 2D:                    254.289   254.289   0.0% |
   Communicate to 1D:                      127.474   127.474   0.0% |
   Communicate to 2D:                      256.601   256.601   0.0% |
   FFT 1D:                                 138.209   138.209   0.0% |
   FFT 2D:                                 145.916   145.916   0.0% |
  XC 3D grid:                            169314.449  6636.511   1.2% |
   VdW-DF integral:                      162677.937   541.471   0.1% |
    Convolution:                         14486.726 14486.726   2.5% ||
    FFT:                                  3315.858  3315.858   0.6% |
    gather:                              113486.744 113486.744  19.7% |-------|
    hmm1:                                 2837.155  2837.155   0.5% |
    hmm2:                                 3797.454  3797.454   0.7% |
    iFFT:                                 3150.891  3150.891   0.5% |
    potential:                           21061.609   111.484   0.0% |
     collect:                             3435.489  3435.489   0.6% |
     p1:                                  8143.209  8143.209   1.4% ||
     p2:                                  5604.719  5604.719   1.0% |
     sum:                                 3766.707  3766.707   0.7% |
    splines:                                 0.028     0.028   0.0% |
  vbar:                                     11.328    11.328   0.0% |
 Orthonormalize:                           925.642     0.031   0.0% |
  calc_s_matrix:                           142.615   142.615   0.0% |
  inverse-cholesky:                        177.110   177.110   0.0% |
  projections:                               0.015     0.015   0.0% |
  rotate_psi_s:                            605.871   605.871   0.1% |
Set symmetry:                                0.023     0.023   0.0% |
Other:                                     763.078   763.078   0.1% |
-------------------------------------------------------------------
Total:                                             577072.242 100.0%

Memory usage: 3.47 GiB
Date: Wed Jan 25 17:26:16 2023
