
  ___ ___ ___ _ _ _  
 |   |   |_  | | | | 
 | | | | | . | | | | 
 |__ |  _|___|_____|  22.8.0
 |___|_|             

User:   vazumah@c24.hercules
Date:   Tue Jan 17 06:13:47 2023
Arch:   x86_64
Pid:    30809
CWD:    /home/vazumah/Python_projects/LiNRR/autocad_start/slab_experiments/free_slabs/Al/fcc111/substrate
Python: 3.10.8
gpaw:   /home/vazumah/.conda/envs/GPAW/lib/python3.10/site-packages/gpaw
_gpaw:  /home/vazumah/.conda/envs/GPAW/lib/python3.10/site-packages/
        _gpaw.cpython-310-x86_64-linux-gnu.so
ase:    /home/vazumah/.conda/envs/GPAW/lib/python3.10/site-packages/ase (version 3.22.1)
numpy:  /home/vazumah/.conda/envs/GPAW/lib/python3.10/site-packages/numpy (version 1.24.1)
scipy:  /home/vazumah/.conda/envs/GPAW/lib/python3.10/site-packages/scipy (version 1.10.0)
libxc:  5.2.3
units:  Angstrom and eV
cores: 24
OpenMP: True
OMP_NUM_THREADS: 1

Input parameters:
  h: 0.16
  kpts: {size: [4, 4, 1]}
  maxiter: 999
  occupations: {name: fermi-dirac,
                width: 0.05}
  poissonsolver: {dipolelayer: xy}
  xc: BEEF-vdW

System changes: positions, numbers, cell, pbc, initial_charges, initial_magmoms 

Initialize ...

species:
  Al:
    name: Aluminium
    id: 0292cae29f5d6237e50f6abdd43a7bdd
    Z: 13.0
    valence: 3
    core: 10
    charge: 0.0
    file: /home/vazumah/.conda/envs/GPAW/share/gpaw/Al.PBE.gz
    compensation charges: {type: gauss,
                           rc: 0.34,
                           lmax: 2}
    cutoffs: {filter: 1.91,
              core: 2.36}
    valence states:
      #              energy  rcut
      - 3s(2.00)    -7.753   1.085
      - 3p(1.00)    -2.712   1.085
      -  s          19.459   1.085
      -  p          24.499   1.085
      -  d           0.000   1.085
  
    # Using partial waves for Al as LCAO basis

Reference energy: -237723.237536  # eV

Spin-paired calculation

Convergence criteria:
 Maximum [total energy] change in last 3 cyles: 0.0005 eV / electron
 Maximum integral of absolute [dens]ity change: 0.0001 electrons / valence electron
 Maximum integral of absolute [eigenst]ate change: 4e-08 eV^2 / valence electron
 Maximum number of scf [iter]ations: 999
 (Square brackets indicate name in SCF output, whereas a 'c' in
 the SCF output indicates the quantity has converged.)

Symmetries present (total): 12

  ( 1  0  0)  ( 1  0  0)  ( 1 -1  0)  ( 1 -1  0)  ( 0  1  0)  ( 0  1  0)
  ( 1 -1  0)  ( 0  1  0)  ( 1  0  0)  ( 0 -1  0)  ( 1  0  0)  (-1  1  0)
  ( 0  0 -1)  ( 0  0  1)  ( 0  0 -1)  ( 0  0  1)  ( 0  0  1)  ( 0  0 -1)

  ( 0 -1  0)  ( 0 -1  0)  (-1  1  0)  (-1  1  0)  (-1  0  0)  (-1  0  0)
  ( 1 -1  0)  (-1  0  0)  ( 0  1  0)  (-1  0  0)  ( 0 -1  0)  (-1  1  0)
  ( 0  0  1)  ( 0  0 -1)  ( 0  0 -1)  ( 0  0  1)  ( 0  0 -1)  ( 0  0  1)
Note: your k-points are not as symmetric as your crystal!

16 k-points: 4 x 4 x 1 Monkhorst-Pack grid
6 k-points in the irreducible part of the Brillouin zone
       k-points in crystal coordinates                weights
   0:     0.12500000   -0.12500000    0.00000000          2/16
   1:     0.12500000    0.12500000    0.00000000          2/16
   2:     0.37500000   -0.37500000    0.00000000          2/16
   3:     0.37500000   -0.12500000    0.00000000          4/16
   4:     0.37500000    0.12500000    0.00000000          4/16
   5:     0.37500000    0.37500000    0.00000000          2/16

Wave functions: Uniform real-space grid
  Kinetic energy operator: 8*3+1=25 point O(h^6) finite-difference Laplacian
  ScaLapack parameters: grid=1x1, blocksize=None
  Wavefunction extrapolation:
    Improved wavefunction reuse through dual PAW basis 

Occupation numbers: Fermi-Dirac:
  width: 0.0500  # eV
 

Eigensolver
   Davidson(niter=2) 

Densities:
  Coarse grid: 48*48*168 grid
  Fine grid: 96*96*336 grid
  Total Charge: 0.000000 

Density mixing:
  Method: separate
  Backend: pulay
  Linear mixing parameter: 0.05
  old densities: 5
  Damping of long wavelength oscillations: 50 

Hamiltonian:
  XC and Coulomb potentials evaluated on a 96*96*336 grid
  Using the BEEF-vdW Exchange-Correlation functional
  Interpolation: tri-quintic (5. degree polynomial)
  Poisson solver: FastPoissonSolver using
    Stencil: 8*3+1=25 point O(h^6) finite-difference Laplacian
    FFT axes: [0, 1]
    FST axes: [2]

Dipole correction along z-axis 

XC parameters: BEEF-vdW with 2 nearest neighbor stencil

Memory estimate:
  Process memory now: 151.48 MiB
  Calculator: 303.14 MiB
    Density: 74.41 MiB
      Arrays: 18.95 MiB
      Localized functions: 48.26 MiB
      Mixer: 7.21 MiB
    Hamiltonian: 15.96 MiB
      Arrays: 12.39 MiB
      XC: 0.00 MiB
      Poisson: 0.00 MiB
      vbar: 3.57 MiB
    Wavefunctions: 212.77 MiB
      Arrays psit_nG: 99.46 MiB
      Eigensolver: 107.39 MiB
      Projections: 0.12 MiB
      Projectors: 5.79 MiB

Total number of cores used: 24
Parallelization over k-points: 6
Domain decomposition: 1 x 1 x 4

Number of atoms: 36
Number of atomic orbitals: 144
Number of bands in calculation: 69
Number of valence electrons: 108
Bands to converge: occupied

... initialized

Initializing position-dependent things.

Density initialized from atomic densities
Creating initial wave functions:
  69 bands from LCAO basis set

                                             
                                             
                                             
                                             
                                             
                 Al     Al     Al            
                                             
            Al    AAl    AAl    Al           
       Al    AAl    AAl    Al                
                                             
        Al     Al    AAl    Al     Al        
                                             
                Al     Al     Al             
                                             
           Al    AAl    AAl    Al            
                                             
            Al     Al     Al                 
       Al     Al     Al                      
                                             
                                             
                                             
                                             

Positions:
   0 Al     0.000000    0.000000   10.000000    ( 0.0000,  0.0000,  0.0000)
   1 Al     2.863782    0.000000   10.000000    ( 0.0000,  0.0000,  0.0000)
   2 Al     5.727565    0.000000   10.000000    ( 0.0000,  0.0000,  0.0000)
   3 Al     1.431891    2.480108   10.000000    ( 0.0000,  0.0000,  0.0000)
   4 Al     4.295674    2.480108   10.000000    ( 0.0000,  0.0000,  0.0000)
   5 Al     7.159456    2.480108   10.000000    ( 0.0000,  0.0000,  0.0000)
   6 Al     2.863782    4.960217   10.000000    ( 0.0000,  0.0000,  0.0000)
   7 Al     5.727565    4.960217   10.000000    ( 0.0000,  0.0000,  0.0000)
   8 Al     8.591347    4.960217   10.000000    ( 0.0000,  0.0000,  0.0000)
   9 Al     1.431891    0.826703   12.338269    ( 0.0000,  0.0000,  0.0000)
  10 Al     4.295674    0.826703   12.338269    ( 0.0000,  0.0000,  0.0000)
  11 Al     7.159456    0.826703   12.338269    ( 0.0000,  0.0000,  0.0000)
  12 Al     2.863782    3.306811   12.338269    ( 0.0000,  0.0000,  0.0000)
  13 Al     5.727565    3.306811   12.338269    ( 0.0000,  0.0000,  0.0000)
  14 Al     8.591347    3.306811   12.338269    ( 0.0000,  0.0000,  0.0000)
  15 Al     4.295674    5.786920   12.338269    ( 0.0000,  0.0000,  0.0000)
  16 Al     7.159456    5.786920   12.338269    ( 0.0000,  0.0000,  0.0000)
  17 Al    10.023239    5.786920   12.338269    ( 0.0000,  0.0000,  0.0000)
  18 Al     0.000000    1.653406   14.676537    ( 0.0000,  0.0000,  0.0000)
  19 Al     2.863782    1.653406   14.676537    ( 0.0000,  0.0000,  0.0000)
  20 Al     5.727565    1.653406   14.676537    ( 0.0000,  0.0000,  0.0000)
  21 Al     1.431891    4.133514   14.676537    ( 0.0000,  0.0000,  0.0000)
  22 Al     4.295674    4.133514   14.676537    ( 0.0000,  0.0000,  0.0000)
  23 Al     7.159456    4.133514   14.676537    ( 0.0000,  0.0000,  0.0000)
  24 Al     2.863782    6.613622   14.676537    ( 0.0000,  0.0000,  0.0000)
  25 Al     5.727565    6.613622   14.676537    ( 0.0000,  0.0000,  0.0000)
  26 Al     8.591347    6.613622   14.676537    ( 0.0000,  0.0000,  0.0000)
  27 Al     0.000000    0.000000   17.014806    ( 0.0000,  0.0000,  0.0000)
  28 Al     2.863782    0.000000   17.014806    ( 0.0000,  0.0000,  0.0000)
  29 Al     5.727565    0.000000   17.014806    ( 0.0000,  0.0000,  0.0000)
  30 Al     1.431891    2.480108   17.014806    ( 0.0000,  0.0000,  0.0000)
  31 Al     4.295674    2.480108   17.014806    ( 0.0000,  0.0000,  0.0000)
  32 Al     7.159456    2.480108   17.014806    ( 0.0000,  0.0000,  0.0000)
  33 Al     2.863782    4.960217   17.014806    ( 0.0000,  0.0000,  0.0000)
  34 Al     5.727565    4.960217   17.014806    ( 0.0000,  0.0000,  0.0000)
  35 Al     8.591347    4.960217   17.014806    ( 0.0000,  0.0000,  0.0000)

Unit cell:
           periodic     x           y           z      points  spacing
  1. axis:    yes    8.591347    0.000000    0.000000    48     0.1550
  2. axis:    yes    4.295674    7.440325    0.000000    48     0.1550
  3. axis:    no     0.000000    0.000000   27.014806   168     0.1608

  Lengths:   8.591347   8.591347  27.014806
  Angles:   90.000000  90.000000  60.000000

Effective grid spacing dv^(1/3) = 0.1646

     iter     time        total  log10-change:
                         energy  eigst   dens
iter:   1 06:16:35 -1000.246743
iter:   2 06:18:49 -1000.703553  +0.24  -0.88
iter:   3 06:21:03 -1000.249856  -0.03  -0.89
iter:   4 06:23:20 -1000.131604  -0.48  -0.96
Writing to output.gpw (mode='')

iter:   5 06:25:36 -1002.147192  +0.06  -1.07
iter:   6 06:27:54 -1003.046701  -0.20  -1.16
iter:   7 06:30:14 -1000.607734  -0.10  -1.05
iter:   8 06:32:26 -1000.281472  -0.15  -1.42
iter:   9 06:34:36 -1000.242969  -1.35  -1.96
Writing to output.gpw (mode='')

iter:  10 06:36:46 -1000.240985c -1.64  -2.21
iter:  11 06:38:55 -1000.257811c -1.85  -2.35
iter:  12 06:41:11 -1000.254467c -2.18  -2.19
iter:  13 06:43:22 -1000.260081c -1.91  -2.20
iter:  14 06:45:30 -1000.239378c -1.88  -2.21
Writing to output.gpw (mode='')

iter:  15 06:47:41 -1000.240131c -2.28  -2.87
iter:  16 06:50:01 -1000.241827c -3.42  -3.03
iter:  17 06:52:19 -1000.240595c -2.86  -2.78
iter:  18 06:54:32 -1000.241722c -2.55  -3.29
iter:  19 06:56:44 -1000.240976c -4.11  -2.84
Writing to output.gpw (mode='')

iter:  20 06:58:56 -1000.240842c -4.19  -3.02
iter:  21 07:01:02 -1000.240965c -5.01  -3.13
iter:  22 07:03:14 -1000.240706c -4.13  -3.06
iter:  23 07:05:25 -1000.240729c -5.20  -3.46
iter:  24 07:07:43 -1000.240706c -4.45  -3.48
Writing to output.gpw (mode='')

iter:  25 07:10:01 -1000.240783c -4.85  -3.61
iter:  26 07:12:18 -1000.240737c -4.36  -3.45
iter:  27 07:14:41 -1000.240737c -5.04  -4.26c
iter:  28 07:16:56 -1000.240736c -6.05  -4.35c
iter:  29 07:19:04 -1000.240734c -6.41  -4.41c
Writing to output.gpw (mode='')

iter:  30 07:21:25 -1000.240740c -5.35  -4.40c
iter:  31 07:23:35 -1000.240736c -6.00  -4.09c
iter:  32 07:25:48 -1000.240739c -6.51  -4.43c
iter:  33 07:28:02 -1000.240742c -6.14  -4.34c
iter:  34 07:30:15 -1000.240739c -6.29  -4.22c
Writing to output.gpw (mode='')

iter:  35 07:32:27 -1000.240739c -6.26  -4.59c
iter:  36 07:34:38 -1000.240738c -7.64c -4.68c

Converged after 36 iterations.

Dipole moment: (-8.333076, -4.811104, -0.000000) |e|*Ang

Energy contributions relative to reference atoms: (reference = -237723.237536)

Kinetic:        +68.427695
Potential:      -17.573805
External:        +0.000000
XC:            -1051.034688
Entropy (-ST):   -0.115260
Local:           -0.002311
--------------------------
Free energy:   -1000.298368
Extrapolated:  -1000.240738

Dipole-layer corrected work functions: 4.286101, 4.286101 eV

Showing only first 2 kpts
 Kpt  Band  Eigenvalues  Occupancy
  0    52     -4.52013    1.98162
  0    53     -4.52013    1.98162
  0    54     -4.43305    1.89948
  0    55     -4.23084    0.49756

  1    52     -4.76239    1.99985
  1    53     -4.64793    1.99856
  1    54     -4.64793    1.99856
  1    55     -4.42199    1.87613


Fermi level: -4.28610

No gap
Writing to output.gpw (mode='')


Forces in eV/Ang:
  0 Al    0.00000    0.00000   -0.07621
  1 Al    0.00000   -0.00000   -0.07621
  2 Al   -0.00000   -0.00000   -0.07621
  3 Al    0.00000    0.00000   -0.07621
  4 Al   -0.00000    0.00000   -0.07621
  5 Al   -0.00000    0.00000   -0.07621
  6 Al   -0.00000   -0.00000   -0.07621
  7 Al    0.00000   -0.00000   -0.07621
  8 Al    0.00000    0.00000   -0.07621
  9 Al   -0.00000   -0.00000    0.11996
 10 Al    0.00000   -0.00000    0.11996
 11 Al    0.00000   -0.00000    0.11996
 12 Al   -0.00000    0.00000    0.11996
 13 Al    0.00000    0.00000    0.11996
 14 Al    0.00000    0.00000    0.11996
 15 Al    0.00000    0.00000    0.11996
 16 Al    0.00000   -0.00000    0.11996
 17 Al   -0.00000   -0.00000    0.11996
 18 Al    0.00000   -0.00000   -0.11996
 19 Al    0.00000    0.00000   -0.11996
 20 Al   -0.00000    0.00000   -0.11996
 21 Al    0.00000   -0.00000   -0.11996
 22 Al    0.00000   -0.00000   -0.11996
 23 Al   -0.00000   -0.00000   -0.11996
 24 Al    0.00000    0.00000   -0.11996
 25 Al   -0.00000    0.00000   -0.11996
 26 Al    0.00000    0.00000   -0.11996
 27 Al    0.00000    0.00000    0.07621
 28 Al    0.00000    0.00000    0.07621
 29 Al   -0.00000    0.00000    0.07621
 30 Al    0.00000    0.00000    0.07621
 31 Al    0.00000   -0.00000    0.07621
 32 Al   -0.00000    0.00000    0.07621
 33 Al   -0.00000   -0.00000    0.07621
 34 Al    0.00000   -0.00000    0.07621
 35 Al    0.00000   -0.00000    0.07621

System changes: positions 

Initializing position-dependent things.

Density initialized from wave functions
                                             
                                             
                                             
                                             
                                             
                 Al     Al     Al            
                                             
            Al    AAl    AAl    Al           
       Al    AAl    AAl    Al                
                                             
        Al     Al    AAl    Al     Al        
                                             
                Al     Al     Al             
                                             
           Al    AAl    AAl    Al            
                                             
            Al     Al     Al                 
       Al     Al     Al                      
                                             
                                             
                                             
                                             

Positions:
   0 Al     0.000000    0.000000    9.998911    ( 0.0000,  0.0000,  0.0000)
   1 Al     2.863782   -0.000000    9.998911    ( 0.0000,  0.0000,  0.0000)
   2 Al     5.727565   -0.000000    9.998911    ( 0.0000,  0.0000,  0.0000)
   3 Al     1.431891    2.480108    9.998911    ( 0.0000,  0.0000,  0.0000)
   4 Al     4.295674    2.480108    9.998911    ( 0.0000,  0.0000,  0.0000)
   5 Al     7.159456    2.480108    9.998911    ( 0.0000,  0.0000,  0.0000)
   6 Al     2.863782    4.960217    9.998911    ( 0.0000,  0.0000,  0.0000)
   7 Al     5.727565    4.960217    9.998911    ( 0.0000,  0.0000,  0.0000)
   8 Al     8.591347    4.960217    9.998911    ( 0.0000,  0.0000,  0.0000)
   9 Al     1.431891    0.826703   12.339982    ( 0.0000,  0.0000,  0.0000)
  10 Al     4.295674    0.826703   12.339982    ( 0.0000,  0.0000,  0.0000)
  11 Al     7.159456    0.826703   12.339982    ( 0.0000,  0.0000,  0.0000)
  12 Al     2.863782    3.306811   12.339982    ( 0.0000,  0.0000,  0.0000)
  13 Al     5.727565    3.306811   12.339982    ( 0.0000,  0.0000,  0.0000)
  14 Al     8.591347    3.306811   12.339982    ( 0.0000,  0.0000,  0.0000)
  15 Al     4.295674    5.786920   12.339982    ( 0.0000,  0.0000,  0.0000)
  16 Al     7.159456    5.786920   12.339982    ( 0.0000,  0.0000,  0.0000)
  17 Al    10.023239    5.786920   12.339982    ( 0.0000,  0.0000,  0.0000)
  18 Al     0.000000    1.653406   14.674823    ( 0.0000,  0.0000,  0.0000)
  19 Al     2.863782    1.653406   14.674823    ( 0.0000,  0.0000,  0.0000)
  20 Al     5.727565    1.653406   14.674823    ( 0.0000,  0.0000,  0.0000)
  21 Al     1.431891    4.133514   14.674823    ( 0.0000,  0.0000,  0.0000)
  22 Al     4.295674    4.133514   14.674823    ( 0.0000,  0.0000,  0.0000)
  23 Al     7.159456    4.133514   14.674823    ( 0.0000,  0.0000,  0.0000)
  24 Al     2.863782    6.613622   14.674823    ( 0.0000,  0.0000,  0.0000)
  25 Al     5.727565    6.613622   14.674823    ( 0.0000,  0.0000,  0.0000)
  26 Al     8.591347    6.613622   14.674823    ( 0.0000,  0.0000,  0.0000)
  27 Al     0.000000    0.000000   17.015894    ( 0.0000,  0.0000,  0.0000)
  28 Al     2.863782    0.000000   17.015894    ( 0.0000,  0.0000,  0.0000)
  29 Al     5.727565    0.000000   17.015894    ( 0.0000,  0.0000,  0.0000)
  30 Al     1.431891    2.480108   17.015894    ( 0.0000,  0.0000,  0.0000)
  31 Al     4.295674    2.480108   17.015894    ( 0.0000,  0.0000,  0.0000)
  32 Al     7.159456    2.480108   17.015894    ( 0.0000,  0.0000,  0.0000)
  33 Al     2.863782    4.960217   17.015894    ( 0.0000,  0.0000,  0.0000)
  34 Al     5.727565    4.960217   17.015894    ( 0.0000,  0.0000,  0.0000)
  35 Al     8.591347    4.960217   17.015894    ( 0.0000,  0.0000,  0.0000)

Unit cell:
           periodic     x           y           z      points  spacing
  1. axis:    yes    8.591347    0.000000    0.000000    48     0.1550
  2. axis:    yes    4.295674    7.440325    0.000000    48     0.1550
  3. axis:    no     0.000000    0.000000   27.014806   168     0.1608

  Lengths:   8.591347   8.591347  27.014806
  Angles:   90.000000  90.000000  60.000000

Effective grid spacing dv^(1/3) = 0.1646

     iter     time        total  log10-change:
                         energy  eigst   dens
iter:   1 07:37:32 -1000.246423  -3.14
iter:   2 07:39:49 -1000.246181  -4.32  -2.96
iter:   3 07:42:07 -1000.246190c -3.04  -3.00
iter:   4 07:44:17 -1000.246403c -3.01  -3.14
Writing to output.gpw (mode='')

iter:   5 07:46:26 -1000.245979c -4.23  -2.97
iter:   6 07:48:41 -1000.245871c -3.89  -3.21
iter:   7 07:51:01 -1000.245889c -3.99  -3.63
iter:   8 07:53:16 -1000.245887c -5.07  -4.26c
iter:   9 07:55:31 -1000.245879c -5.85  -4.35c
Writing to output.gpw (mode='')

iter:  10 07:57:45 -1000.245885c -5.54  -4.17c
iter:  11 07:59:53 -1000.245893c -5.60  -4.47c
iter:  12 08:02:01 -1000.245890c -6.27  -4.77c
iter:  13 08:04:19 -1000.245891c -6.38  -4.98c
iter:  14 08:06:39 -1000.245892c -6.44  -4.90c
Writing to output.gpw (mode='')

iter:  15 08:08:58 -1000.245893c -6.37  -4.81c
iter:  16 08:11:08 -1000.245891c -6.97  -4.59c
iter:  17 08:13:24 -1000.245889c -7.07  -4.77c
iter:  18 08:15:38 -1000.245889c -7.60c -5.04c

Converged after 18 iterations.

Dipole moment: (-8.333548, -4.811376, -0.000000) |e|*Ang

Energy contributions relative to reference atoms: (reference = -237723.237536)

Kinetic:        +68.198588
Potential:      -17.406171
External:        +0.000000
XC:            -1050.971889
Entropy (-ST):   -0.114633
Local:           -0.009100
--------------------------
Free energy:   -1000.303206
Extrapolated:  -1000.245889

Dipole-layer corrected work functions: 4.285253, 4.285253 eV

Showing only first 2 kpts
 Kpt  Band  Eigenvalues  Occupancy
  0    52     -4.51990    1.98185
  0    53     -4.51990    1.98185
  0    54     -4.42684    1.88873
  0    55     -4.23147    0.50862

  1    52     -4.76224    1.99986
  1    53     -4.64987    1.99864
  1    54     -4.64987    1.99864
  1    55     -4.42102    1.87585


Fermi level: -4.28525

No gap
Writing to output.gpw (mode='')


Forces in eV/Ang:
  0 Al    0.00000    0.00000   -0.06738
  1 Al    0.00000    0.00000   -0.06738
  2 Al   -0.00000    0.00000   -0.06738
  3 Al    0.00000    0.00000   -0.06738
  4 Al    0.00000   -0.00000   -0.06738
  5 Al   -0.00000    0.00000   -0.06738
  6 Al   -0.00000   -0.00000   -0.06738
  7 Al    0.00000   -0.00000   -0.06738
  8 Al    0.00000    0.00000   -0.06738
  9 Al    0.00000    0.00000    0.10251
 10 Al    0.00000    0.00000    0.10251
 11 Al   -0.00000    0.00000    0.10251
 12 Al    0.00000   -0.00000    0.10251
 13 Al   -0.00000   -0.00000    0.10251
 14 Al    0.00000   -0.00000    0.10251
 15 Al    0.00000   -0.00000    0.10251
 16 Al   -0.00000    0.00000    0.10251
 17 Al    0.00000    0.00000    0.10251
 18 Al    0.00000    0.00000   -0.10251
 19 Al   -0.00000   -0.00000   -0.10251
 20 Al    0.00000   -0.00000   -0.10251
 21 Al   -0.00000    0.00000   -0.10251
 22 Al    0.00000    0.00000   -0.10251
 23 Al    0.00000    0.00000   -0.10251
 24 Al   -0.00000   -0.00000   -0.10251
 25 Al    0.00000   -0.00000   -0.10251
 26 Al    0.00000   -0.00000   -0.10251
 27 Al   -0.00000   -0.00000    0.06738
 28 Al    0.00000   -0.00000    0.06738
 29 Al   -0.00000   -0.00000    0.06738
 30 Al    0.00000    0.00000    0.06738
 31 Al    0.00000   -0.00000    0.06738
 32 Al   -0.00000    0.00000    0.06738
 33 Al   -0.00000   -0.00000    0.06738
 34 Al    0.00000   -0.00000    0.06738
 35 Al   -0.00000    0.00000    0.06738

System changes: positions 

Initializing position-dependent things.

Density initialized from wave functions
                                             
                                             
                                             
                                             
                                             
                 Al     Al     Al            
                                             
            Al    AAl    AAl    Al           
       Al    AAl    AAl    Al                
                                             
        Al     Al    AAl    Al     Al        
                                             
                Al     Al     Al             
                                             
           Al    AAl    AAl    Al            
                                             
            Al     Al     Al                 
       Al     Al     Al                      
                                             
                                             
                                             
                                             

Positions:
   0 Al     0.000000    0.000000    9.992339    ( 0.0000,  0.0000,  0.0000)
   1 Al     2.863782   -0.000000    9.992339    ( 0.0000,  0.0000,  0.0000)
   2 Al     5.727565   -0.000000    9.992339    ( 0.0000,  0.0000,  0.0000)
   3 Al     1.431891    2.480108    9.992339    ( 0.0000,  0.0000,  0.0000)
   4 Al     4.295674    2.480108    9.992339    ( 0.0000,  0.0000,  0.0000)
   5 Al     7.159456    2.480108    9.992339    ( 0.0000,  0.0000,  0.0000)
   6 Al     2.863782    4.960217    9.992339    ( 0.0000,  0.0000,  0.0000)
   7 Al     5.727565    4.960217    9.992339    ( 0.0000,  0.0000,  0.0000)
   8 Al     8.591347    4.960217    9.992339    ( 0.0000,  0.0000,  0.0000)
   9 Al     1.431891    0.826703   12.349982    ( 0.0000,  0.0000,  0.0000)
  10 Al     4.295674    0.826703   12.349982    ( 0.0000,  0.0000,  0.0000)
  11 Al     7.159456    0.826703   12.349982    ( 0.0000,  0.0000,  0.0000)
  12 Al     2.863782    3.306811   12.349982    ( 0.0000,  0.0000,  0.0000)
  13 Al     5.727565    3.306811   12.349982    ( 0.0000,  0.0000,  0.0000)
  14 Al     8.591347    3.306811   12.349982    ( 0.0000,  0.0000,  0.0000)
  15 Al     4.295674    5.786920   12.349982    ( 0.0000,  0.0000,  0.0000)
  16 Al     7.159456    5.786920   12.349982    ( 0.0000,  0.0000,  0.0000)
  17 Al    10.023239    5.786920   12.349982    ( 0.0000,  0.0000,  0.0000)
  18 Al     0.000000    1.653406   14.664823    ( 0.0000,  0.0000,  0.0000)
  19 Al     2.863782    1.653406   14.664823    ( 0.0000,  0.0000,  0.0000)
  20 Al     5.727565    1.653406   14.664823    ( 0.0000,  0.0000,  0.0000)
  21 Al     1.431891    4.133514   14.664823    ( 0.0000,  0.0000,  0.0000)
  22 Al     4.295674    4.133514   14.664823    ( 0.0000,  0.0000,  0.0000)
  23 Al     7.159456    4.133514   14.664823    ( 0.0000,  0.0000,  0.0000)
  24 Al     2.863782    6.613622   14.664823    ( 0.0000,  0.0000,  0.0000)
  25 Al     5.727565    6.613622   14.664823    ( 0.0000,  0.0000,  0.0000)
  26 Al     8.591347    6.613622   14.664823    ( 0.0000,  0.0000,  0.0000)
  27 Al     0.000000   -0.000000   17.022467    ( 0.0000,  0.0000,  0.0000)
  28 Al     2.863782    0.000000   17.022467    ( 0.0000,  0.0000,  0.0000)
  29 Al     5.727565    0.000000   17.022467    ( 0.0000,  0.0000,  0.0000)
  30 Al     1.431891    2.480108   17.022467    ( 0.0000,  0.0000,  0.0000)
  31 Al     4.295674    2.480108   17.022467    ( 0.0000,  0.0000,  0.0000)
  32 Al     7.159456    2.480108   17.022467    ( 0.0000,  0.0000,  0.0000)
  33 Al     2.863782    4.960217   17.022467    ( 0.0000,  0.0000,  0.0000)
  34 Al     5.727565    4.960217   17.022467    ( 0.0000,  0.0000,  0.0000)
  35 Al     8.591347    4.960217   17.022467    ( 0.0000,  0.0000,  0.0000)

Unit cell:
           periodic     x           y           z      points  spacing
  1. axis:    yes    8.591347    0.000000    0.000000    48     0.1550
  2. axis:    yes    4.295674    7.440325    0.000000    48     0.1550
  3. axis:    no     0.000000    0.000000   27.014806   168     0.1608

  Lengths:   8.591347   8.591347  27.014806
  Angles:   90.000000  90.000000  60.000000

Effective grid spacing dv^(1/3) = 0.1646

     iter     time        total  log10-change:
                         energy  eigst   dens
iter:   1 08:18:30 -1000.283866  -1.63
iter:   2 08:20:41 -1000.275974  -2.75  -2.20
iter:   3 08:22:57 -1000.270487c -1.56  -2.23
iter:   4 08:25:14 -1000.278724c -1.60  -2.41
Writing to output.gpw (mode='')

iter:   5 08:27:26 -1000.266056c -2.72  -2.26
iter:   6 08:29:37 -1000.261605c -2.47  -2.48
iter:   7 08:31:55 -1000.261539c -2.57  -2.90
iter:   8 08:34:11 -1000.261570c -3.69  -3.52
iter:   9 08:36:27 -1000.261688c -4.33  -3.60
Writing to output.gpw (mode='')

iter:  10 08:38:43 -1000.261670c -3.99  -3.36
iter:  11 08:41:04 -1000.261696c -4.26  -3.75
iter:  12 08:43:22 -1000.261695c -4.72  -4.17c
iter:  13 08:45:36 -1000.261744c -4.24  -4.22c
iter:  14 08:47:51 -1000.261699c -4.79  -3.59
Writing to output.gpw (mode='')

iter:  15 08:50:00 -1000.261709c -4.70  -4.15c
iter:  16 08:52:13 -1000.261703c -5.57  -3.82
iter:  17 08:54:29 -1000.261705c -5.26  -4.14c
iter:  18 08:56:43 -1000.261706c -5.77  -4.96c
iter:  19 08:58:59 -1000.261705c -6.23  -5.00c
Writing to output.gpw (mode='')

iter:  20 09:01:19 -1000.261705c -6.50  -5.08c
iter:  21 09:03:40 -1000.261706c -6.35  -5.00c
iter:  22 09:05:59 -1000.261706c -6.75  -5.02c
iter:  23 09:08:17 -1000.261706c -6.73  -5.06c
iter:  24 09:10:33 -1000.261706c -7.05  -4.89c
Writing to output.gpw (mode='')

iter:  25 09:12:49 -1000.261706c -7.20  -4.98c
iter:  26 09:15:03 -1000.261706c -7.19  -4.91c
iter:  27 09:17:22 -1000.261705c -7.52c -4.79c

Converged after 27 iterations.

Dipole moment: (-8.336268, -4.812946, -0.000000) |e|*Ang

Energy contributions relative to reference atoms: (reference = -237723.237536)

Kinetic:        +66.675725
Potential:      -16.287938
External:        +0.000000
XC:            -1050.587428
Entropy (-ST):   -0.111594
Local:           -0.006268
--------------------------
Free energy:   -1000.317503
Extrapolated:  -1000.261705

Dipole-layer corrected work functions: 4.282180, 4.282180 eV

Showing only first 2 kpts
 Kpt  Band  Eigenvalues  Occupancy
  0    52     -4.52083    1.98323
  0    53     -4.52083    1.98323
  0    54     -4.39181    1.79915
  0    55     -4.23602    0.56864

  1    52     -4.76274    1.99987
  1    53     -4.66199    1.99900
  1    54     -4.66199    1.99900
  1    55     -4.41590    1.87099


Fermi level: -4.28218

No gap
Writing to output.gpw (mode='')


Forces in eV/Ang:
  0 Al    0.00000   -0.00000   -0.02080
  1 Al    0.00000    0.00000   -0.02080
  2 Al   -0.00000    0.00000   -0.02080
  3 Al    0.00000    0.00000   -0.02080
  4 Al   -0.00000    0.00000   -0.02080
  5 Al   -0.00000    0.00000   -0.02080
  6 Al   -0.00000   -0.00000   -0.02080
  7 Al    0.00000   -0.00000   -0.02080
  8 Al   -0.00000    0.00000   -0.02080
  9 Al    0.00000    0.00000   -0.00261
 10 Al    0.00000    0.00000   -0.00261
 11 Al   -0.00000    0.00000   -0.00261
 12 Al    0.00000   -0.00000   -0.00261
 13 Al   -0.00000   -0.00000   -0.00261
 14 Al    0.00000    0.00000   -0.00261
 15 Al    0.00000   -0.00000   -0.00261
 16 Al    0.00000   -0.00000   -0.00261
 17 Al   -0.00000   -0.00000   -0.00261
 18 Al    0.00000    0.00000    0.00261
 19 Al    0.00000    0.00000    0.00261
 20 Al   -0.00000    0.00000    0.00261
 21 Al   -0.00000    0.00000    0.00261
 22 Al    0.00000   -0.00000    0.00261
 23 Al    0.00000    0.00000    0.00261
 24 Al   -0.00000   -0.00000    0.00261
 25 Al    0.00000   -0.00000    0.00261
 26 Al    0.00000   -0.00000    0.00261
 27 Al    0.00000    0.00000    0.02080
 28 Al    0.00000   -0.00000    0.02080
 29 Al   -0.00000   -0.00000    0.02080
 30 Al    0.00000    0.00000    0.02080
 31 Al    0.00000    0.00000    0.02080
 32 Al   -0.00000    0.00000    0.02080
 33 Al   -0.00000   -0.00000    0.02080
 34 Al    0.00000   -0.00000    0.02080
 35 Al    0.00000   -0.00000    0.02080

Timing:                                      incl.     excl.
-------------------------------------------------------------------
Density initialized from wave functions:     5.514     3.892   0.0% |
 Symmetrize density:                         1.622     1.622   0.0% |
Forces:                                     30.773    30.773   0.3% |
Hamiltonian:                               233.717     0.001   0.0% |
 Atomic:                                     0.917     0.308   0.0% |
  XC Correction:                             0.610     0.610   0.0% |
 Calculate atomic Hamiltonians:              0.851     0.851   0.0% |
 Communicate:                                1.220     1.220   0.0% |
 Hartree integrate/restrict:                 0.309     0.309   0.0% |
 Initialize Hamiltonian:                     0.000     0.000   0.0% |
 Poisson:                                    5.004     1.260   0.0% |
  Communicate from 1D:                       0.627     0.627   0.0% |
  Communicate from 2D:                       0.595     0.595   0.0% |
  Communicate to 1D:                         0.245     0.245   0.0% |
  Communicate to 2D:                         0.977     0.977   0.0% |
  FFT 1D:                                    0.639     0.639   0.0% |
  FFT 2D:                                    0.662     0.662   0.0% |
 XC 3D grid:                               225.353    15.272   0.1% |
  VdW-DF integral:                         210.082     0.402   0.0% |
   Convolution:                             10.448    10.448   0.1% |
   FFT:                                      1.985     1.985   0.0% |
   gather:                                 162.350   162.350   1.5% ||
   hmm1:                                     2.114     2.114   0.0% |
   hmm2:                                     2.807     2.807   0.0% |
   iFFT:                                     2.328     2.328   0.0% |
   potential:                               15.002     0.141   0.0% |
    collect:                                 1.491     1.491   0.0% |
    p1:                                      5.669     5.669   0.1% |
    p2:                                      3.643     3.643   0.0% |
    sum:                                     4.057     4.057   0.0% |
   splines:                                 12.646    12.646   0.1% |
 vbar:                                       0.061     0.061   0.0% |
LCAO initialization:                         8.519     0.043   0.0% |
 LCAO eigensolver:                           2.546     0.001   0.0% |
  Calculate projections:                     0.000     0.000   0.0% |
  DenseAtomicCorrection:                     0.000     0.000   0.0% |
  Distribute overlap matrix:                 2.444     2.444   0.0% |
  Orbital Layouts:                           0.092     0.092   0.0% |
  Potential matrix:                          0.005     0.005   0.0% |
  Sum over cells:                            0.003     0.003   0.0% |
 LCAO to grid:                               4.487     4.487   0.0% |
 Set positions (LCAO WFS):                   1.443     1.160   0.0% |
  Basic WFS set positions:                   0.033     0.033   0.0% |
  Basis functions set positions:             0.001     0.001   0.0% |
  P tci:                                     0.001     0.001   0.0% |
  ST tci:                                    0.144     0.144   0.0% |
  mktci:                                     0.106     0.106   0.0% |
Redistribute:                                0.012     0.012   0.0% |
SCF-cycle:                               10684.685   161.043   1.5% ||
 Davidson:                                4417.420  1437.713  13.0% |----|
  Apply hamiltonian:                       241.121   241.121   2.2% ||
  Subspace diag:                           567.099     0.015   0.0% |
   calc_h_matrix:                          342.435   113.971   1.0% |
    Apply hamiltonian:                     228.464   228.464   2.1% ||
   diagonalize:                             23.259    23.259   0.2% |
   rotate_psi:                             201.390   201.390   1.8% ||
  calc. matrices:                         1743.247   834.067   7.6% |--|
   Apply hamiltonian:                      909.180   909.180   8.2% |--|
  diagonalize:                               5.766     5.766   0.1% |
  rotate_psi:                              422.474   422.474   3.8% |-|
 Density:                                  139.839     0.003   0.0% |
  Atomic density matrices:                  30.271    30.271   0.3% |
  Mix:                                      12.923    12.923   0.1% |
  Multipole moments:                         0.164     0.164   0.0% |
  Pseudo density:                           96.478    25.241   0.2% |
   Symmetrize density:                      71.238    71.238   0.6% |
 Hamiltonian:                             5950.441     0.039   0.0% |
  Atomic:                                   22.837     5.893   0.1% |
   XC Correction:                           16.943    16.943   0.2% |
  Calculate atomic Hamiltonians:            25.573    25.573   0.2% |
  Communicate:                              27.656    27.656   0.3% |
  Hartree integrate/restrict:                7.634     7.634   0.1% |
  Poisson:                                 116.190    22.382   0.2% |
   Communicate from 1D:                     15.697    15.697   0.1% |
   Communicate from 2D:                     19.661    19.661   0.2% |
   Communicate to 1D:                        5.602     5.602   0.1% |
   Communicate to 2D:                       19.609    19.609   0.2% |
   FFT 1D:                                  16.051    16.051   0.1% |
   FFT 2D:                                  17.188    17.188   0.2% |
  XC 3D grid:                             5748.885   416.544   3.8% |-|
   VdW-DF integral:                       5332.340    10.642   0.1% |
    Convolution:                           268.257   268.257   2.4% ||
    FFT:                                    55.271    55.271   0.5% |
    gather:                               4424.890  4424.890  40.1% |---------------|
    hmm1:                                   49.906    49.906   0.5% |
    hmm2:                                   71.013    71.013   0.6% |
    iFFT:                                   54.729    54.729   0.5% |
    potential:                             397.632     4.066   0.0% |
     collect:                               47.510    47.510   0.4% |
     p1:                                   150.578   150.578   1.4% ||
     p2:                                    95.319    95.319   0.9% |
     sum:                                  100.160   100.160   0.9% |
    splines:                                 0.001     0.001   0.0% |
  vbar:                                      1.629     1.629   0.0% |
 Orthonormalize:                            15.942     0.009   0.0% |
  calc_s_matrix:                             1.605     1.605   0.0% |
  inverse-cholesky:                         10.668    10.668   0.1% |
  projections:                               0.000     0.000   0.0% |
  rotate_psi_s:                              3.660     3.660   0.0% |
Set symmetry:                                0.023     0.023   0.0% |
Other:                                      64.274    64.274   0.6% |
-------------------------------------------------------------------
Total:                                             11027.518 100.0%

Memory usage: 1.08 GiB
Date: Tue Jan 17 09:17:34 2023
