
  ___ ___ ___ _ _ _  
 |   |   |_  | | | | 
 | | | | | . | | | | 
 |__ |  _|___|_____|  22.8.0
 |___|_|             

User:   vazumah@c11.hercules
Date:   Thu Jan 19 00:45:29 2023
Arch:   x86_64
Pid:    15636
CWD:    /home/vazumah/Python_projects/LiNRR/autocad_start/slab_experiments/fixed_slab_def_vacuum/K/bcc111/substrate
Python: 3.10.8
gpaw:   /home/vazumah/.conda/envs/GPAW/lib/python3.10/site-packages/gpaw
_gpaw:  /home/vazumah/.conda/envs/GPAW/lib/python3.10/site-packages/
        _gpaw.cpython-310-x86_64-linux-gnu.so
ase:    /home/vazumah/.conda/envs/GPAW/lib/python3.10/site-packages/ase (version 3.22.1)
numpy:  /home/vazumah/.conda/envs/GPAW/lib/python3.10/site-packages/numpy (version 1.24.1)
scipy:  /home/vazumah/.conda/envs/GPAW/lib/python3.10/site-packages/scipy (version 1.10.0)
libxc:  5.2.3
units:  Angstrom and eV
cores: 24
OpenMP: True
OMP_NUM_THREADS: 1

Input parameters:
  eigensolver: {name: dav,
                niter: 3}
  h: 0.16
  kpts: {size: [2, 2, 1]}
  maxiter: 999
  mixer: {backend: pulay,
          beta: 0.02,
          method: separate,
          nmaxold: 5,
          weight: 100}
  occupations: {name: fermi-dirac,
                width: 0.05}
  poissonsolver: {dipolelayer: xy}
  xc: BEEF-vdW

System changes: positions, numbers, cell, pbc, initial_charges, initial_magmoms 

Initialize ...

species:
  K:
    name: Potassium
    id: 04190408da443a44668134082ce1c192
    Z: 19.0
    valence: 9
    core: 10
    charge: 0.0
    file: /home/vazumah/.conda/envs/GPAW/share/gpaw/K.PBE.gz
    compensation charges: {type: gauss,
                           rc: 0.35,
                           lmax: 2}
    cutoffs: {filter: 1.91,
              core: 1.27}
    valence states:
      #              energy  rcut
      - 3s(2.00)   -35.338   1.122
      - 4s(1.00)    -2.319   1.122
      - 3p(6.00)   -18.813   1.106
      -  p           8.398   1.106
      -  d           0.000   0.937
  
    # Using partial waves for K as LCAO basis

Reference energy: -589761.115863  # eV

Spin-paired calculation

Convergence criteria:
 Maximum [total energy] change in last 3 cyles: 0.0005 eV / electron
 Maximum integral of absolute [dens]ity change: 0.0001 electrons / valence electron
 Maximum integral of absolute [eigenst]ate change: 4e-08 eV^2 / valence electron
 Maximum number of scf [iter]ations: 999
 (Square brackets indicate name in SCF output, whereas a 'c' in
 the SCF output indicates the quantity has converged.)

Symmetries present (total): 12

  ( 1  0  0)  ( 1  0  0)  ( 1 -1  0)  ( 1 -1  0)  ( 0  1  0)  ( 0  1  0)
  ( 1 -1  0)  ( 0  1  0)  ( 1  0  0)  ( 0 -1  0)  ( 1  0  0)  (-1  1  0)
  ( 0  0 -1)  ( 0  0  1)  ( 0  0 -1)  ( 0  0  1)  ( 0  0  1)  ( 0  0 -1)

  ( 0 -1  0)  ( 0 -1  0)  (-1  1  0)  (-1  1  0)  (-1  0  0)  (-1  0  0)
  ( 1 -1  0)  (-1  0  0)  ( 0  1  0)  (-1  0  0)  ( 0 -1  0)  (-1  1  0)
  ( 0  0  1)  ( 0  0 -1)  ( 0  0 -1)  ( 0  0  1)  ( 0  0 -1)  ( 0  0  1)
Note: your k-points are not as symmetric as your crystal!

4 k-points: 2 x 2 x 1 Monkhorst-Pack grid
2 k-points in the irreducible part of the Brillouin zone
       k-points in crystal coordinates                weights
   0:     0.25000000   -0.25000000    0.00000000          2/4
   1:     0.25000000    0.25000000    0.00000000          2/4

Wave functions: Uniform real-space grid
  Kinetic energy operator: 8*3+1=25 point O(h^6) finite-difference Laplacian
  ScaLapack parameters: grid=1x1, blocksize=None
  Wavefunction extrapolation:
    Improved wavefunction reuse through dual PAW basis 

Occupation numbers: Fermi-Dirac:
  width: 0.0500  # eV
 

Eigensolver
   Davidson(niter=3) 

Densities:
  Coarse grid: 120*120*152 grid
  Fine grid: 240*240*304 grid
  Total Charge: 0.000000 

Density mixing:
  Method: separate
  Backend: pulay
  Linear mixing parameter: 0.02
  old densities: 5
  Damping of long wavelength oscillations: 100 

Hamiltonian:
  XC and Coulomb potentials evaluated on a 240*240*304 grid
  Using the BEEF-vdW Exchange-Correlation functional
  Interpolation: tri-quintic (5. degree polynomial)
  Poisson solver: FastPoissonSolver using
    Stencil: 8*3+1=25 point O(h^6) finite-difference Laplacian
    FFT axes: [0, 1]
    FST axes: [2]

Dipole correction along z-axis 

XC parameters: BEEF-vdW with 2 nearest neighbor stencil

Memory estimate:
  Process memory now: 212.24 MiB
  Calculator: 1100.16 MiB
    Density: 66.13 MiB
      Arrays: 36.04 MiB
      Localized functions: 16.36 MiB
      Mixer: 13.73 MiB
    Hamiltonian: 24.68 MiB
      Arrays: 23.57 MiB
      XC: 0.00 MiB
      Poisson: 0.00 MiB
      vbar: 1.11 MiB
    Wavefunctions: 1009.36 MiB
      Arrays psit_nG: 494.38 MiB
      Eigensolver: 513.07 MiB
      Projections: 0.11 MiB
      Projectors: 1.80 MiB

Total number of cores used: 24
Parallelization over k-points: 2
Domain decomposition: 2 x 2 x 3

Number of atoms: 36
Number of atomic orbitals: 180
Number of bands in calculation: 180
Number of valence electrons: 324
Bands to converge: occupied

... initialized

Initializing position-dependent things.

Density initialized from atomic densities
Creating initial wave functions:
  180 bands from LCAO basis set

                                                                                          
                                                                                          
                                                                                          
                                                                                          
                                                                                          
                                    K                 K                 K                 
                                 K                 K                 K                    
                                                                                          
                                           K                 K                  K         
                       K                 K                 K                              
                    K                 K                 K                                 
                                                                                          
                              K  K               K K               K K                    
          K                 K                 K                                           
       K                 K                 K                                              
                    K                 K                 K                                 
                 K                  K                 K                                   
                                                                                          
                                                                                          
       K                 K                 K                                              
                                                                                          
                                                                                          
                                                                                          
                                                                                          

Positions:
   0 K      0.000000    0.000000   10.000000    ( 0.0000,  0.0000,  0.0000)
   1 K      7.396337    0.000000   10.000000    ( 0.0000,  0.0000,  0.0000)
   2 K     14.792674    0.000000   10.000000    ( 0.0000,  0.0000,  0.0000)
   3 K      3.698168    6.405416   10.000000    ( 0.0000,  0.0000,  0.0000)
   4 K     11.094505    6.405416   10.000000    ( 0.0000,  0.0000,  0.0000)
   5 K     18.490842    6.405416   10.000000    ( 0.0000,  0.0000,  0.0000)
   6 K      7.396337   12.810831   10.000000    ( 0.0000,  0.0000,  0.0000)
   7 K     14.792674   12.810831   10.000000    ( 0.0000,  0.0000,  0.0000)
   8 K     22.189011   12.810831   10.000000    ( 0.0000,  0.0000,  0.0000)
   9 K      3.698168    2.135139   11.509771    ( 0.0000,  0.0000,  0.0000)
  10 K     11.094505    2.135139   11.509771    ( 0.0000,  0.0000,  0.0000)
  11 K     18.490842    2.135139   11.509771    ( 0.0000,  0.0000,  0.0000)
  12 K      7.396337    8.540554   11.509771    ( 0.0000,  0.0000,  0.0000)
  13 K     14.792674    8.540554   11.509771    ( 0.0000,  0.0000,  0.0000)
  14 K     22.189011    8.540554   11.509771    ( 0.0000,  0.0000,  0.0000)
  15 K     11.094505   14.945970   11.509771    ( 0.0000,  0.0000,  0.0000)
  16 K     18.490842   14.945970   11.509771    ( 0.0000,  0.0000,  0.0000)
  17 K     25.887179   14.945970   11.509771    ( 0.0000,  0.0000,  0.0000)
  18 K      0.000000    4.270277   13.019542    ( 0.0000,  0.0000,  0.0000)
  19 K      7.396337    4.270277   13.019542    ( 0.0000,  0.0000,  0.0000)
  20 K     14.792674    4.270277   13.019542    ( 0.0000,  0.0000,  0.0000)
  21 K      3.698168   10.675693   13.019542    ( 0.0000,  0.0000,  0.0000)
  22 K     11.094505   10.675693   13.019542    ( 0.0000,  0.0000,  0.0000)
  23 K     18.490842   10.675693   13.019542    ( 0.0000,  0.0000,  0.0000)
  24 K      7.396337   17.081108   13.019542    ( 0.0000,  0.0000,  0.0000)
  25 K     14.792674   17.081108   13.019542    ( 0.0000,  0.0000,  0.0000)
  26 K     22.189011   17.081108   13.019542    ( 0.0000,  0.0000,  0.0000)
  27 K      0.000000    0.000000   14.529313    ( 0.0000,  0.0000,  0.0000)
  28 K      7.396337    0.000000   14.529313    ( 0.0000,  0.0000,  0.0000)
  29 K     14.792674    0.000000   14.529313    ( 0.0000,  0.0000,  0.0000)
  30 K      3.698168    6.405416   14.529313    ( 0.0000,  0.0000,  0.0000)
  31 K     11.094505    6.405416   14.529313    ( 0.0000,  0.0000,  0.0000)
  32 K     18.490842    6.405416   14.529313    ( 0.0000,  0.0000,  0.0000)
  33 K      7.396337   12.810831   14.529313    ( 0.0000,  0.0000,  0.0000)
  34 K     14.792674   12.810831   14.529313    ( 0.0000,  0.0000,  0.0000)
  35 K     22.189011   12.810831   14.529313    ( 0.0000,  0.0000,  0.0000)

Unit cell:
           periodic     x           y           z      points  spacing
  1. axis:    yes   22.189011    0.000000    0.000000   120     0.1601
  2. axis:    yes   11.094505   19.216247    0.000000   120     0.1601
  3. axis:    no     0.000000    0.000000   24.529313   152     0.1614

  Lengths:  22.189011  22.189011  24.529313
  Angles:   90.000000  90.000000  60.000000

Effective grid spacing dv^(1/3) = 0.1684

     iter     time        total  log10-change:
                         energy  eigst   dens
iter:   1 01:03:58 -1457.267905
iter:   2 01:20:43 -1459.557274  +0.01  -1.38
iter:   3 01:36:51 -1459.797180  -0.49  -1.37
iter:   4 01:53:56 -1456.589429  -0.76  -1.38
Writing to output.gpw (mode='')

iter:   5 02:10:53 -1456.832791  -1.04  -1.64
iter:   6 02:27:35 -1457.008864  -1.44  -1.64
iter:   7 02:44:50 -1456.971445  -1.64  -1.60
iter:   8 03:01:47 -1457.045225c -1.65  -2.24
iter:   9 03:18:42 -1457.084217c -1.97  -2.33
Writing to output.gpw (mode='')

iter:  10 03:35:50 -1457.048335c -2.15  -2.25
iter:  11 03:52:42 -1457.040081c -2.55  -2.44
iter:  12 04:09:29 -1457.048030c -2.60  -2.68
iter:  13 04:26:22 -1457.052864c -2.86  -2.65
iter:  14 04:43:09 -1457.053694c -2.99  -2.66
Writing to output.gpw (mode='')

iter:  15 05:00:12 -1457.060098c -3.14  -2.80
iter:  16 05:17:27 -1457.058052c -3.09  -2.85
iter:  17 05:34:32 -1457.059682c -3.09  -3.16
iter:  18 05:51:37 -1457.060261c -3.33  -3.02
iter:  19 06:08:58 -1457.060697c -3.55  -3.02
Writing to output.gpw (mode='')

iter:  20 06:26:17 -1457.060701c -3.79  -2.99
iter:  21 06:43:31 -1457.064365c -3.77  -3.03
iter:  22 07:00:43 -1457.062543c -3.94  -2.83
iter:  23 07:18:05 -1457.061397c -4.37  -2.87
iter:  24 07:35:11 -1457.061331c -4.49  -2.94
Writing to output.gpw (mode='')

iter:  25 07:52:35 -1457.060193c -4.23  -2.95
iter:  26 08:09:45 -1457.059944c -4.21  -3.07
iter:  27 08:26:36 -1457.059818c -4.25  -3.10
iter:  28 08:43:28 -1457.059919c -4.85  -3.09
iter:  29 09:00:34 -1457.060792c -4.71  -3.09
Writing to output.gpw (mode='')

iter:  30 09:18:05 -1457.060886c -4.86  -3.16
iter:  31 09:35:10 -1457.061357c -5.11  -3.16
iter:  32 09:52:11 -1457.062202c -4.88  -3.22
iter:  33 10:09:32 -1457.062290c -5.04  -3.31
iter:  34 10:26:25 -1457.062335c -5.20  -3.28
Writing to output.gpw (mode='')

iter:  35 10:43:15 -1457.062631c -4.66  -3.28
iter:  36 11:00:12 -1457.062752c -4.84  -3.50
iter:  37 11:17:24 -1457.062752c -5.33  -3.71
iter:  38 11:34:26 -1457.062677c -5.55  -3.61
iter:  39 11:51:23 -1457.062797c -5.60  -3.54
Writing to output.gpw (mode='')

iter:  40 12:08:23 -1457.062689c -5.74  -3.69
iter:  41 12:25:20 -1457.062822c -5.75  -3.61
iter:  42 12:42:24 -1457.062809c -5.85  -3.61
iter:  43 12:59:06 -1457.062798c -6.16  -3.68
iter:  44 13:16:25 -1457.062826c -6.20  -3.68
Writing to output.gpw (mode='')

iter:  45 13:32:57 -1457.062858c -6.27  -3.69
iter:  46 13:50:01 -1457.062887c -6.32  -3.71
iter:  47 14:06:58 -1457.062907c -6.31  -3.73
iter:  48 14:23:50 -1457.062915c -6.07  -3.75
iter:  49 14:40:48 -1457.062913c -6.18  -3.74
Writing to output.gpw (mode='')

iter:  50 14:57:46 -1457.062897c -6.10  -3.74
iter:  51 15:14:37 -1457.062898c -6.18  -3.91
iter:  52 15:31:28 -1457.062892c -6.47  -4.03c
iter:  53 15:48:34 -1457.062912c -6.29  -3.98
iter:  54 16:05:50 -1457.062912c -6.37  -4.15c
Writing to output.gpw (mode='')

iter:  55 16:22:37 -1457.062886c -6.36  -4.16c
iter:  56 16:39:49 -1457.062889c -6.57  -4.10c
iter:  57 16:56:43 -1457.062897c -6.48  -4.12c
iter:  58 17:13:43 -1457.062892c -6.81  -4.27c
iter:  59 17:30:44 -1457.062888c -7.21  -4.30c
Writing to output.gpw (mode='')

iter:  60 17:47:32 -1457.062904c -6.82  -4.29c
iter:  61 18:04:42 -1457.062904c -6.98  -4.45c
iter:  62 18:21:44 -1457.062906c -7.33  -4.52c
iter:  63 18:39:01 -1457.062902c -7.33  -4.55c
iter:  64 18:55:55 -1457.062899c -7.52c -4.76c

Converged after 64 iterations.

Dipole moment: (-52.351123, -30.224935, 0.000000) |e|*Ang

Energy contributions relative to reference atoms: (reference = -589761.115863)

Kinetic:       +178.524819
Potential:     -133.845523
External:        +0.000000
XC:            -1477.245588
Entropy (-ST):   -0.331955
Local:          -24.330629
--------------------------
Free energy:   -1457.228877
Extrapolated:  -1457.062899

Dipole-layer corrected work functions: 2.477770, 2.477770 eV

Showing all kpts
 Kpt  Band  Eigenvalues  Occupancy
  0   160     -2.46399    0.86308
  0   161     -2.46399    0.86308
  0   162     -2.41362    0.43407
  0   163     -2.35349    0.15374

  1   160     -2.58157    1.77711
  1   161     -2.58157    1.77711
  1   162     -2.49118    1.13327
  1   163     -2.49118    1.13327


Fermi level: -2.47777

No gap
Writing to output.gpw (mode='')


Forces in eV/Ang:
  0 K     0.00000   -0.00000    0.00024
  1 K    -0.00000    0.00000    0.00024
  2 K     0.00000    0.00000    0.00024
  3 K    -0.00000   -0.00000    0.00024
  4 K     0.00000   -0.00000    0.00024
  5 K     0.00000   -0.00000    0.00024
  6 K     0.00000    0.00000    0.00024
  7 K    -0.00000    0.00000    0.00024
  8 K     0.00000    0.00000    0.00024
  9 K    -0.00000   -0.00000    0.03969
 10 K     0.00000   -0.00000    0.03969
 11 K     0.00000   -0.00000    0.03969
 12 K    -0.00000    0.00000    0.03969
 13 K     0.00000    0.00000    0.03969
 14 K     0.00000   -0.00000    0.03969
 15 K     0.00000    0.00000    0.03969
 16 K    -0.00000    0.00000    0.03969
 17 K     0.00000    0.00000    0.03969
 18 K     0.00000   -0.00000   -0.03969
 19 K    -0.00000   -0.00000   -0.03969
 20 K     0.00000   -0.00000   -0.03969
 21 K     0.00000   -0.00000   -0.03969
 22 K     0.00000    0.00000   -0.03969
 23 K    -0.00000   -0.00000   -0.03969
 24 K     0.00000    0.00000   -0.03969
 25 K    -0.00000    0.00000   -0.03969
 26 K     0.00000    0.00000   -0.03969
 27 K    -0.00000    0.00000   -0.00024
 28 K    -0.00000   -0.00000   -0.00024
 29 K     0.00000   -0.00000   -0.00024
 30 K    -0.00000   -0.00000   -0.00024
 31 K     0.00000   -0.00000   -0.00024
 32 K     0.00000   -0.00000   -0.00024
 33 K     0.00000    0.00000   -0.00024
 34 K    -0.00000    0.00000   -0.00024
 35 K     0.00000   -0.00000   -0.00024

Timing:                              incl.     excl.
-----------------------------------------------------------
Forces:                             10.959    10.959   0.0% |
Hamiltonian:                       283.977     0.000   0.0% |
 Atomic:                             0.458     0.236   0.0% |
  XC Correction:                     0.222     0.222   0.0% |
 Calculate atomic Hamiltonians:      0.225     0.225   0.0% |
 Communicate:                        0.328     0.328   0.0% |
 Hartree integrate/restrict:         0.079     0.079   0.0% |
 Initialize Hamiltonian:             0.000     0.000   0.0% |
 Poisson:                            4.716     1.919   0.0% |
  Communicate from 1D:               0.503     0.503   0.0% |
  Communicate from 2D:               0.467     0.467   0.0% |
  Communicate to 1D:                 0.259     0.259   0.0% |
  Communicate to 2D:                 0.607     0.607   0.0% |
  FFT 1D:                            0.521     0.521   0.0% |
  FFT 2D:                            0.440     0.440   0.0% |
 XC 3D grid:                       278.130    13.578   0.0% |
  VdW-DF integral:                 264.552     0.864   0.0% |
   Convolution:                     22.836    22.836   0.0% |
   FFT:                              4.615     4.615   0.0% |
   gather:                         166.862   166.862   0.3% |
   hmm1:                             3.140     3.140   0.0% |
   hmm2:                             5.639     5.639   0.0% |
   iFFT:                             4.716     4.716   0.0% |
   potential:                       29.311     0.131   0.0% |
    collect:                         4.609     4.609   0.0% |
    p1:                             12.001    12.001   0.0% |
    p2:                              7.803     7.803   0.0% |
    sum:                             4.767     4.767   0.0% |
   splines:                         26.570    26.570   0.0% |
 vbar:                               0.040     0.040   0.0% |
LCAO initialization:                27.023     0.119   0.0% |
 LCAO eigensolver:                   0.680     0.001   0.0% |
  Calculate projections:             0.000     0.000   0.0% |
  DenseAtomicCorrection:             0.000     0.000   0.0% |
  Distribute overlap matrix:         0.484     0.484   0.0% |
  Orbital Layouts:                   0.168     0.168   0.0% |
  Potential matrix:                  0.026     0.026   0.0% |
  Sum over cells:                    0.001     0.001   0.0% |
 LCAO to grid:                      25.798    25.798   0.0% |
 Set positions (LCAO WFS):           0.426     0.267   0.0% |
  Basic WFS set positions:           0.075     0.075   0.0% |
  Basis functions set positions:     0.001     0.001   0.0% |
  P tci:                             0.001     0.001   0.0% |
  ST tci:                            0.026     0.026   0.0% |
  mktci:                             0.056     0.056   0.0% |
SCF-cycle:                       65094.315   216.272   0.3% |
 Davidson:                       47953.428 12910.008  19.7% |-------|
  Apply hamiltonian:              2646.540  2646.540   4.0% |-|
  Subspace diag:                  6258.078     0.012   0.0% |
   calc_h_matrix:                 2299.830  1024.218   1.6% ||
    Apply hamiltonian:            1275.611  1275.611   1.9% ||
   diagonalize:                    115.070   115.070   0.2% |
   rotate_psi:                    3843.166  3843.166   5.9% |-|
  calc. matrices:                15117.357 10656.225  16.3% |------|
   Apply hamiltonian:             4461.132  4461.132   6.8% |--|
  diagonalize:                     105.985   105.985   0.2% |
  rotate_psi:                    10915.461 10915.461  16.7% |------|
 Density:                          437.909     0.003   0.0% |
  Atomic density matrices:          15.497    15.497   0.0% |
  Mix:                              28.017    28.017   0.0% |
  Multipole moments:                 0.469     0.469   0.0% |
  Pseudo density:                  393.924    83.883   0.1% |
   Symmetrize density:             310.041   310.041   0.5% |
 Hamiltonian:                    16443.690     0.023   0.0% |
  Atomic:                           22.304     3.494   0.0% |
   XC Correction:                   18.810    18.810   0.0% |
  Calculate atomic Hamiltonians:    14.017    14.017   0.0% |
  Communicate:                      29.141    29.141   0.0% |
  Hartree integrate/restrict:       16.438    16.438   0.0% |
  Poisson:                         236.917    65.908   0.1% |
   Communicate from 1D:             32.355    32.355   0.0% |
   Communicate from 2D:             33.119    33.119   0.1% |
   Communicate to 1D:               20.201    20.201   0.0% |
   Communicate to 2D:               33.335    33.335   0.1% |
   FFT 1D:                          26.432    26.432   0.0% |
   FFT 2D:                          25.567    25.567   0.0% |
  XC 3D grid:                    16122.198   841.510   1.3% ||
   VdW-DF integral:              15280.688    57.247   0.1% |
    Convolution:                  1481.844  1481.844   2.3% ||
    FFT:                           319.003   319.003   0.5% |
    gather:                      10701.248 10701.248  16.4% |------|
    hmm1:                          240.805   240.805   0.4% |
    hmm2:                          334.624   334.624   0.5% |
    iFFT:                          313.099   313.099   0.5% |
    potential:                    1832.817    11.199   0.0% |
     collect:                      291.400   291.400   0.4% |
     p1:                           711.505   711.505   1.1% |
     p2:                           487.108   487.108   0.7% |
     sum:                          331.605   331.605   0.5% |
    splines:                         0.001     0.001   0.0% |
  vbar:                              2.653     2.653   0.0% |
 Orthonormalize:                    43.016     0.000   0.0% |
  calc_s_matrix:                     6.953     6.953   0.0% |
  inverse-cholesky:                  6.439     6.439   0.0% |
  projections:                       0.000     0.000   0.0% |
  rotate_psi_s:                     29.624    29.624   0.0% |
Set symmetry:                        0.019     0.019   0.0% |
Other:                              23.384    23.384   0.0% |
-----------------------------------------------------------
Total:                                     65439.678 100.0%

Memory usage: 4.89 GiB
Date: Thu Jan 19 18:56:09 2023
