
  ___ ___ ___ _ _ _  
 |   |   |_  | | | | 
 | | | | | . | | | | 
 |__ |  _|___|_____|  22.8.0
 |___|_|             

User:   vazumah@c02.hercules
Date:   Tue Jan 24 05:49:51 2023
Arch:   x86_64
Pid:    24646
CWD:    /home/vazumah/Python_projects/LiNRR/autocad_start/slab_experiments/free_slabs_big_vacuum/Ba/bcc100/substrate
Python: 3.10.8
gpaw:   /home/vazumah/.conda/envs/GPAW/lib/python3.10/site-packages/gpaw
_gpaw:  /home/vazumah/.conda/envs/GPAW/lib/python3.10/site-packages/
        _gpaw.cpython-310-x86_64-linux-gnu.so
ase:    /home/vazumah/.conda/envs/GPAW/lib/python3.10/site-packages/ase (version 3.22.1)
numpy:  /home/vazumah/.conda/envs/GPAW/lib/python3.10/site-packages/numpy (version 1.24.1)
scipy:  /home/vazumah/.conda/envs/GPAW/lib/python3.10/site-packages/scipy (version 1.10.0)
libxc:  5.2.3
units:  Angstrom and eV
cores: 24
OpenMP: True
OMP_NUM_THREADS: 1

Input parameters:
  eigensolver: {name: dav,
                niter: 3}
  h: 0.16
  kpts: {size: [4, 4, 1]}
  maxiter: 999
  mixer: {backend: pulay,
          beta: 0.02,
          method: separate,
          nmaxold: 5,
          weight: 100}
  occupations: {name: fermi-dirac,
                width: 0.05}
  poissonsolver: {dipolelayer: xy}
  xc: BEEF-vdW

System changes: positions, numbers, cell, pbc, initial_charges, initial_magmoms 

Initialize ...

species:
  Ba:
    name: Barium
    id: 3c0c69fceb001740075f2c7491402c79
    Z: 56.0
    valence: 10
    core: 46
    charge: 0.0
    file: /home/vazumah/.conda/envs/GPAW/share/gpaw/Ba.PBE.gz
    compensation charges: {type: gauss,
                           rc: 0.37,
                           lmax: 2}
    cutoffs: {filter: 2.06,
              core: 2.33}
    valence states:
      #              energy  rcut
      - 5s(2.00)   -33.644   1.164
      - 6s(2.00)    -3.229   1.164
      - 5p(6.00)   -18.744   1.164
      -  p           0.000   1.164
      -  d           0.000   1.164
      -  d          27.211   1.164
  
    # Using partial waves for Ba as LCAO basis

Reference energy: -7966002.330397  # eV

Spin-paired calculation

Convergence criteria:
 Maximum [total energy] change in last 3 cyles: 0.0005 eV / electron
 Maximum integral of absolute [dens]ity change: 0.0001 electrons / valence electron
 Maximum integral of absolute [eigenst]ate change: 4e-08 eV^2 / valence electron
 Maximum number of scf [iter]ations: 999
 (Square brackets indicate name in SCF output, whereas a 'c' in
 the SCF output indicates the quantity has converged.)

Symmetries present (total): 8

  ( 1  0  0)  ( 1  0  0)  ( 0  1  0)  ( 0  1  0)  ( 0 -1  0)  ( 0 -1  0)
  ( 0  1  0)  ( 0 -1  0)  ( 1  0  0)  (-1  0  0)  ( 1  0  0)  (-1  0  0)
  ( 0  0  1)  ( 0  0  1)  ( 0  0  1)  ( 0  0  1)  ( 0  0  1)  ( 0  0  1)

  (-1  0  0)  (-1  0  0)
  ( 0  1  0)  ( 0 -1  0)
  ( 0  0  1)  ( 0  0  1)

16 k-points: 4 x 4 x 1 Monkhorst-Pack grid
3 k-points in the irreducible part of the Brillouin zone
       k-points in crystal coordinates                weights
   0:     0.12500000    0.12500000    0.00000000          4/16
   1:     0.37500000    0.12500000    0.00000000          8/16
   2:     0.37500000    0.37500000    0.00000000          4/16

Wave functions: Uniform real-space grid
  Kinetic energy operator: 6*3+1=19 point O(h^6) finite-difference Laplacian
  ScaLapack parameters: grid=1x1, blocksize=None
  Wavefunction extrapolation:
    Improved wavefunction reuse through dual PAW basis 

Occupation numbers: Fermi-Dirac:
  width: 0.0500  # eV
 

Eigensolver
   Davidson(niter=3) 

Densities:
  Coarse grid: 96*96*172 grid
  Fine grid: 192*192*344 grid
  Total Charge: 0.000000 

Density mixing:
  Method: separate
  Backend: pulay
  Linear mixing parameter: 0.02
  old densities: 5
  Damping of long wavelength oscillations: 100 

Hamiltonian:
  XC and Coulomb potentials evaluated on a 192*192*344 grid
  Using the BEEF-vdW Exchange-Correlation functional
  Interpolation: tri-quintic (5. degree polynomial)
  Poisson solver: FastPoissonSolver using
    Stencil: 6*3+1=19 point O(h^6) finite-difference Laplacian
    FFT axes: [0, 1]
    FST axes: [2]

Dipole correction along z-axis 

XC parameters: BEEF-vdW with 2 nearest neighbor stencil

Memory estimate:
  Process memory now: 228.37 MiB
  Calculator: 1217.33 MiB
    Density: 87.64 MiB
      Arrays: 39.06 MiB
      Localized functions: 33.64 MiB
      Mixer: 14.94 MiB
    Hamiltonian: 28.08 MiB
      Arrays: 25.54 MiB
      XC: 0.00 MiB
      Poisson: 0.00 MiB
      vbar: 2.54 MiB
    Wavefunctions: 1101.61 MiB
      Arrays psit_nG: 537.89 MiB
      Eigensolver: 557.78 MiB
      Projections: 0.22 MiB
      Projectors: 5.71 MiB

Total number of cores used: 24
Parallelization over k-points: 3
Domain decomposition: 2 x 2 x 2

Number of atoms: 36
Number of atomic orbitals: 180
Number of bands in calculation: 180
Number of valence electrons: 360
Bands to converge: occupied

... initialized

Initializing position-dependent things.

Density initialized from atomic densities
Creating initial wave functions:
  180 bands from LCAO basis set

          .------------------------------------.  
         /|                                    |  
        / |                                    |  
       /  |                                    |  
      /   |                                    |  
     /    |                                    |  
    /     |                                    |  
   /      |                                    |  
  /       |                                    |  
 *        |                                    |  
 |        |                                    |  
 |        |                                    |  
 |        |                                    |  
 |        |                                    |  
 |        |                                    |  
 |     Ba |        Ba           Ba             |  
 |        |                                    |  
 |        |    Ba          Ba          Ba      |  
 |  Ba    |     Ba           Ba                |  
 |        |                                    |  
 |        | Ba          Ba          Ba         |  
 Ba       |  Ba           Ba                   |  
 |     Ba |        Ba           Ba             |  
 |       Ba    Ba    Ba    Ba    Ba    Ba      |  
 |        |                                    |  
 |  Ba    |     Ba           Ba                |  
 |        | Ba          Ba          Ba         |  
 |        |                                    |  
 Ba       |  Ba           Ba                   |  
 |       Ba          Ba          Ba            |  
 |        |                                    |  
 |        |                                    |  
 |        |                                    |  
 |        |                                    |  
 |        .------------------------------------.  
 |       /                                    /   
 |      /                                    /    
 |     /                                    /     
 |    /                                    /      
 |   /                                    /       
 |  /                                    /        
 | /                                    /         
 |/                                    /          
 *------------------------------------*           

Positions:
   0 Ba     2.510000    2.510000   10.000000    ( 0.0000,  0.0000,  0.0000)
   1 Ba     7.530000    2.510000   10.000000    ( 0.0000,  0.0000,  0.0000)
   2 Ba    12.550000    2.510000   10.000000    ( 0.0000,  0.0000,  0.0000)
   3 Ba     2.510000    7.530000   10.000000    ( 0.0000,  0.0000,  0.0000)
   4 Ba     7.530000    7.530000   10.000000    ( 0.0000,  0.0000,  0.0000)
   5 Ba    12.550000    7.530000   10.000000    ( 0.0000,  0.0000,  0.0000)
   6 Ba     2.510000   12.550000   10.000000    ( 0.0000,  0.0000,  0.0000)
   7 Ba     7.530000   12.550000   10.000000    ( 0.0000,  0.0000,  0.0000)
   8 Ba    12.550000   12.550000   10.000000    ( 0.0000,  0.0000,  0.0000)
   9 Ba     0.000000    0.000000   12.510000    ( 0.0000,  0.0000,  0.0000)
  10 Ba     5.020000    0.000000   12.510000    ( 0.0000,  0.0000,  0.0000)
  11 Ba    10.040000    0.000000   12.510000    ( 0.0000,  0.0000,  0.0000)
  12 Ba     0.000000    5.020000   12.510000    ( 0.0000,  0.0000,  0.0000)
  13 Ba     5.020000    5.020000   12.510000    ( 0.0000,  0.0000,  0.0000)
  14 Ba    10.040000    5.020000   12.510000    ( 0.0000,  0.0000,  0.0000)
  15 Ba     0.000000   10.040000   12.510000    ( 0.0000,  0.0000,  0.0000)
  16 Ba     5.020000   10.040000   12.510000    ( 0.0000,  0.0000,  0.0000)
  17 Ba    10.040000   10.040000   12.510000    ( 0.0000,  0.0000,  0.0000)
  18 Ba     2.510000    2.510000   15.020000    ( 0.0000,  0.0000,  0.0000)
  19 Ba     7.530000    2.510000   15.020000    ( 0.0000,  0.0000,  0.0000)
  20 Ba    12.550000    2.510000   15.020000    ( 0.0000,  0.0000,  0.0000)
  21 Ba     2.510000    7.530000   15.020000    ( 0.0000,  0.0000,  0.0000)
  22 Ba     7.530000    7.530000   15.020000    ( 0.0000,  0.0000,  0.0000)
  23 Ba    12.550000    7.530000   15.020000    ( 0.0000,  0.0000,  0.0000)
  24 Ba     2.510000   12.550000   15.020000    ( 0.0000,  0.0000,  0.0000)
  25 Ba     7.530000   12.550000   15.020000    ( 0.0000,  0.0000,  0.0000)
  26 Ba    12.550000   12.550000   15.020000    ( 0.0000,  0.0000,  0.0000)
  27 Ba     0.000000    0.000000   17.530000    ( 0.0000,  0.0000,  0.0000)
  28 Ba     5.020000    0.000000   17.530000    ( 0.0000,  0.0000,  0.0000)
  29 Ba    10.040000    0.000000   17.530000    ( 0.0000,  0.0000,  0.0000)
  30 Ba     0.000000    5.020000   17.530000    ( 0.0000,  0.0000,  0.0000)
  31 Ba     5.020000    5.020000   17.530000    ( 0.0000,  0.0000,  0.0000)
  32 Ba    10.040000    5.020000   17.530000    ( 0.0000,  0.0000,  0.0000)
  33 Ba     0.000000   10.040000   17.530000    ( 0.0000,  0.0000,  0.0000)
  34 Ba     5.020000   10.040000   17.530000    ( 0.0000,  0.0000,  0.0000)
  35 Ba    10.040000   10.040000   17.530000    ( 0.0000,  0.0000,  0.0000)

Unit cell:
           periodic     x           y           z      points  spacing
  1. axis:    yes   15.060000    0.000000    0.000000    96     0.1569
  2. axis:    yes    0.000000   15.060000    0.000000    96     0.1569
  3. axis:    no     0.000000    0.000000   27.530000   172     0.1601

  Lengths:  15.060000  15.060000  27.530000
  Angles:   90.000000  90.000000  90.000000

Effective grid spacing dv^(1/3) = 0.1579

     iter     time        total  log10-change:
                         energy  eigst   dens
iter:   1 06:07:20 -6773.687579
iter:   2 06:22:55 -6784.489103  +0.80  -1.20
iter:   3 06:38:37 -6793.848582  +0.57  -1.21
iter:   4 06:54:00 -6788.783372  +0.32  -1.14
Writing to output.gpw (mode='')

iter:   5 07:09:41 -6791.327656  +0.27  -1.66
iter:   6 07:24:54 -6793.159287  -0.08  -1.71
iter:   7 07:40:20 -6794.631054  +0.05  -1.68
iter:   8 07:55:20 -6796.345305  -0.29  -1.63
iter:   9 08:10:01 -6796.000413  -0.24  -1.57
Writing to output.gpw (mode='')

iter:  10 08:25:36 -6796.309935  -0.74  -1.63
iter:  11 08:40:48 -6796.689333  -0.48  -1.63
iter:  12 08:55:41 -6797.269420  -0.56  -1.70
iter:  13 09:10:37 -6801.354390  -0.50  -1.63
iter:  14 09:25:44 -6797.392150  -0.43  -1.49
Writing to output.gpw (mode='')

iter:  15 09:41:03 -6807.014604  -0.34  -1.52
iter:  16 09:56:03 -6810.000230  +0.03  -1.28
iter:  17 10:11:38 -6808.994451  -0.29  -1.21
iter:  18 10:26:32 -6812.523895  -0.40  -1.19
iter:  19 10:41:12 -6797.206301  -0.27  -1.14
Writing to output.gpw (mode='')

iter:  20 10:56:27 -6810.469145  -0.35  -1.27
iter:  21 11:11:05 -6794.151238  -0.31  -1.16
iter:  22 11:26:31 -6793.829800  +0.12  -1.35
iter:  23 11:41:16 -6796.172574  +0.18  -1.47
iter:  24 11:55:27 -6811.526440  +0.05  -1.51
Writing to output.gpw (mode='')

iter:  25 12:10:51 -6811.474045  +0.22  -1.23
iter:  26 12:25:07 -6801.692895  -1.00  -1.20
iter:  27 12:39:45 -6803.452789  -1.55  -1.25
iter:  28 12:54:36 -6805.283834  -1.38  -1.25
iter:  29 13:09:29 -6798.532576  -0.75  -1.22
Writing to output.gpw (mode='')

iter:  30 13:24:38 -6806.244014  -0.47  -1.29
iter:  31 13:39:53 -6796.693481  -0.45  -1.23
iter:  32 13:54:11 -6795.032221  -0.13  -1.33
iter:  33 14:08:28 -6796.098681  +0.01  -1.51
iter:  34 14:22:31 -6797.649747  +0.06  -1.81
Writing to output.gpw (mode='')

iter:  35 14:36:56 -6798.359405  -0.14  -1.86
iter:  36 14:50:37 -6798.211884  -0.81  -1.84
iter:  37 15:04:31 -6798.481839  -1.39  -1.86
iter:  38 15:17:40 -6798.509026  -0.99  -1.81
iter:  39 15:32:15 -6798.401381c -1.59  -1.78
Writing to output.gpw (mode='')

iter:  40 15:47:18 -6798.594938  -1.60  -1.82
iter:  41 16:01:34 -6799.170345  -1.25  -1.78
iter:  42 16:16:21 -6798.273093  -1.14  -1.67
iter:  43 16:30:34 -6798.268470  -1.44  -1.82
iter:  44 16:45:36 -6798.346847c -1.16  -1.86
Writing to output.gpw (mode='')

iter:  45 17:01:03 -6798.412138c -1.49  -1.89
iter:  46 17:16:25 -6798.430250c -2.11  -1.96
iter:  47 17:30:41 -6798.491152c -1.72  -2.00
iter:  48 17:45:59 -6798.403854c -1.89  -2.14
iter:  49 18:00:32 -6798.409922c -1.98  -2.27
Writing to output.gpw (mode='')

iter:  50 18:14:52 -6798.424191c -2.06  -2.29
iter:  51 18:27:43 -6798.515013c -1.75  -2.35
iter:  52 18:42:51 -6798.523088c -1.66  -2.40
iter:  53 18:58:05 -6798.547798c -2.05  -2.36
iter:  54 19:12:39 -6798.587072c -1.83  -2.30
Writing to output.gpw (mode='')

iter:  55 19:28:00 -6798.586536c -2.10  -2.24
iter:  56 19:43:52 -6798.625587c -1.99  -2.22
iter:  57 19:58:49 -6798.587932c -2.03  -2.17
iter:  58 20:14:07 -6798.570971c -2.19  -2.19
iter:  59 20:29:21 -6798.662313c -2.19  -2.24
Writing to output.gpw (mode='')

iter:  60 20:42:45 -6798.662487c -2.07  -2.14
iter:  61 20:57:48 -6798.567316c -2.15  -2.14
iter:  62 21:13:13 -6798.515356c -2.12  -2.17
iter:  63 21:27:39 -6798.526601c -1.74  -2.40
iter:  64 21:41:52 -6798.547938c -2.13  -2.49
Writing to output.gpw (mode='')

iter:  65 21:57:13 -6798.559432c -2.28  -2.56
iter:  66 22:11:45 -6798.574345c -2.18  -2.60
iter:  67 22:25:46 -6798.587141c -2.07  -2.66
iter:  68 22:40:44 -6798.593289c -2.18  -2.70
iter:  69 22:55:49 -6798.592731c -2.44  -2.70
Writing to output.gpw (mode='')

iter:  70 23:10:47 -6798.599142c -2.71  -2.70
iter:  71 23:26:11 -6798.601123c -2.70  -2.73
iter:  72 23:40:46 -6798.608853c -2.63  -2.72
iter:  73 23:56:13 -6798.611044c -2.93  -2.68
iter:  74 00:10:16 -6798.612761c -2.76  -2.73
Writing to output.gpw (mode='')

iter:  75 00:25:11 -6798.608775c -2.77  -2.79
iter:  76 00:40:50 -6798.608271c -2.78  -2.86
iter:  77 00:56:17 -6798.609835c -2.87  -3.14
iter:  78 01:11:26 -6798.614329c -2.72  -3.16
iter:  79 01:26:41 -6798.616171c -2.96  -3.00
Writing to output.gpw (mode='')

iter:  80 01:41:57 -6798.617219c -3.01  -3.09
iter:  81 01:57:13 -6798.618207c -3.11  -3.28
iter:  82 02:12:30 -6798.619219c -3.20  -3.43
iter:  83 02:27:35 -6798.620041c -3.27  -3.47
iter:  84 02:42:48 -6798.621072c -3.19  -3.46
Writing to output.gpw (mode='')

iter:  85 02:58:01 -6798.622632c -3.28  -3.40
iter:  86 03:13:04 -6798.623485c -3.24  -3.34
iter:  87 03:28:06 -6798.624505c -3.30  -3.34
iter:  88 03:43:03 -6798.625283c -3.31  -3.30
iter:  89 03:58:25 -6798.626123c -3.42  -3.27
Writing to output.gpw (mode='')

iter:  90 04:12:47 -6798.626775c -3.48  -3.17
iter:  91 04:24:15 -6798.626886c -3.29  -3.20
iter:  92 04:38:02 -6798.627314c -3.54  -3.28
iter:  93 04:52:47 -6798.627991c -3.46  -3.30
iter:  94 05:05:33 -6798.628750c -3.46  -3.24
Writing to output.gpw (mode='')

iter:  95 05:17:29 -6798.629241c -3.57  -3.23
iter:  96 05:32:47 -6798.629976c -3.60  -3.21
iter:  97 05:47:50 -6798.630106c -3.56  -3.15
iter:  98 06:02:47 -6798.630341c -3.69  -3.14
iter:  99 06:17:50 -6798.631814c -3.53  -3.15
Writing to output.gpw (mode='')

iter: 100 06:33:11 -6798.631947c -3.67  -3.05
iter: 101 06:48:33 -6798.632107c -3.62  -3.04
iter: 102 07:03:58 -6798.631439c -3.71  -3.03
iter: 103 07:16:54 -6798.632624c -3.82  -3.09
iter: 104 07:31:22 -6798.632648c -3.51  -3.05
Writing to output.gpw (mode='')

iter: 105 07:45:31 -6798.632507c -3.74  -3.08
iter: 106 08:00:23 -6798.632592c -3.60  -3.13
iter: 107 08:15:19 -6798.632760c -3.93  -3.14
iter: 108 08:30:11 -6798.632999c -3.83  -3.14
iter: 109 08:44:54 -6798.633107c -4.00  -3.14
Writing to output.gpw (mode='')

iter: 110 08:59:59 -6798.633671c -3.80  -3.12
iter: 111 09:13:49 -6798.633752c -4.10  -3.21
iter: 112 09:28:42 -6798.634113c -3.75  -3.24
iter: 113 09:43:36 -6798.634456c -3.92  -3.23
iter: 114 09:58:46 -6798.634525c -3.67  -3.19
Writing to output.gpw (mode='')

iter: 115 10:12:54 -6798.634762c -4.12  -3.22
iter: 116 10:27:17 -6798.634796c -3.84  -3.16
iter: 117 10:42:23 -6798.636133c -3.87  -3.33
iter: 118 10:57:54 -6798.635648c -3.88  -3.16
iter: 119 11:12:18 -6798.636126c -3.87  -3.18
Writing to output.gpw (mode='')

iter: 120 11:27:43 -6798.635428c -3.63  -3.21
iter: 121 11:41:02 -6798.635764c -3.68  -3.55
iter: 122 11:56:26 -6798.636061c -3.79  -3.52
iter: 123 12:11:31 -6798.636119c -3.85  -3.48
iter: 124 12:26:14 -6798.636268c -4.10  -3.51
Writing to output.gpw (mode='')

iter: 125 12:41:24 -6798.636426c -3.92  -3.47
iter: 126 12:56:53 -6798.636598c -4.15  -3.46
iter: 127 13:10:05 -6798.637181c -3.84  -3.42
iter: 128 13:25:20 -6798.636831c -4.08  -3.33
iter: 129 13:40:40 -6798.636863c -3.93  -3.38
Writing to output.gpw (mode='')

iter: 130 13:56:13 -6798.637136c -4.33  -3.36
iter: 131 14:10:38 -6798.637322c -4.01  -3.37
iter: 132 14:26:07 -6798.637235c -4.13  -3.32
iter: 133 14:40:33 -6798.637372c -3.97  -3.41
iter: 134 14:56:07 -6798.637541c -4.06  -3.42
Writing to output.gpw (mode='')

iter: 135 15:11:38 -6798.637709c -4.20  -3.43
iter: 136 15:24:07 -6798.637711c -4.08  -3.53
iter: 137 15:39:33 -6798.637820c -4.25  -3.54
iter: 138 15:54:38 -6798.637891c -4.11  -3.61
iter: 139 16:05:07 -6798.638173c -4.07  -3.74
Writing to output.gpw (mode='')

iter: 140 16:20:13 -6798.638342c -3.87  -3.71
iter: 141 16:35:19 -6798.638328c -4.12  -3.64
iter: 142 16:50:06 -6798.638436c -4.31  -3.72
iter: 143 17:05:27 -6798.638546c -4.09  -3.70
iter: 144 17:20:16 -6798.638627c -4.25  -3.68
Writing to output.gpw (mode='')

iter: 145 17:35:26 -6798.638677c -4.13  -3.69
iter: 146 17:49:48 -6798.638766c -4.06  -3.81
iter: 147 18:01:00 -6798.638882c -4.26  -4.02c
iter: 148 18:16:04 -6798.639048c -4.06  -3.93
iter: 149 18:31:06 -6798.639169c -4.27  -3.93
Writing to output.gpw (mode='')

iter: 150 18:45:53 -6798.639255c -4.06  -4.10c
iter: 151 19:00:29 -6798.639353c -4.36  -4.16c
iter: 152 19:14:49 -6798.639440c -4.05  -4.20c
iter: 153 19:26:30 -6798.639612c -4.29  -4.21c
iter: 154 19:42:10 -6798.639706c -4.19  -4.17c
Writing to output.gpw (mode='')

iter: 155 19:55:07 -6798.639781c -4.20  -4.43c
iter: 156 20:10:29 -6798.639851c -4.39  -4.45c
iter: 157 20:25:05 -6798.639958c -4.16  -4.43c
iter: 158 20:37:11 -6798.640037c -4.28  -4.42c
iter: 159 20:51:55 -6798.640133c -4.31  -4.38c
Writing to output.gpw (mode='')

iter: 160 21:03:36 -6798.640206c -4.27  -4.33c
iter: 161 21:14:22 -6798.640276c -4.39  -4.26c
iter: 162 21:27:35 -6798.640350c -4.31  -4.35c
iter: 163 21:36:36 -6798.640450c -4.29  -4.27c
iter: 164 21:51:44 -6798.640576c -4.33  -4.25c
Writing to output.gpw (mode='')

iter: 165 22:01:54 -6798.640663c -4.04  -4.20c
iter: 166 22:16:26 -6798.640749c -4.59  -4.08c
iter: 167 22:30:52 -6798.640817c -4.15  -4.09c
iter: 168 22:44:50 -6798.640951c -4.36  -4.09c
iter: 169 22:59:50 -6798.641015c -4.26  -4.04c
Writing to output.gpw (mode='')

iter: 170 23:14:40 -6798.641119c -4.46  -3.94
iter: 171 23:29:53 -6798.641219c -4.20  -3.89
iter: 172 23:44:49 -6798.641323c -4.23  -3.94
iter: 173 23:58:50 -6798.641372c -4.52  -3.88
iter: 174 00:10:19 -6798.641496c -4.07  -3.95
Writing to output.gpw (mode='')

iter: 175 00:24:36 -6798.641576c -4.48  -3.94
iter: 176 00:39:34 -6798.641655c -4.29  -4.00c
iter: 177 00:50:52 -6798.641797c -4.23  -4.00c
iter: 178 01:03:10 -6798.641813c -4.41  -3.79
iter: 179 01:17:52 -6798.641916c -4.32  -3.91
Writing to output.gpw (mode='')

iter: 180 01:25:45 -6798.641929c -4.51  -3.79
iter: 181 01:34:11 -6798.642035c -4.34  -3.84
iter: 182 01:49:06 -6798.642036c -4.50  -3.79
iter: 183 02:02:55 -6798.642102c -4.37  -3.88
iter: 184 02:16:51 -6798.642185c -4.41  -3.96
Writing to output.gpw (mode='')

iter: 185 02:30:51 -6798.642253c -4.31  -3.97
iter: 186 02:46:08 -6798.642359c -4.24  -3.95
iter: 187 03:01:10 -6798.642573c -4.35  -3.81
iter: 188 03:15:57 -6798.642557c -4.28  -3.71
iter: 189 03:31:04 -6798.642569c -4.38  -3.73
Writing to output.gpw (mode='')

iter: 190 03:46:20 -6798.642629c -4.56  -3.87
iter: 191 04:00:41 -6798.642715c -4.18  -3.86
iter: 192 04:15:37 -6798.642767c -4.63  -3.88
iter: 193 04:30:52 -6798.642787c -4.32  -3.94
iter: 194 04:45:21 -6798.642795c -4.63  -4.03c
Writing to output.gpw (mode='')

iter: 195 05:00:40 -6798.642844c -4.36  -4.22c
iter: 196 05:16:00 -6798.642895c -4.51  -4.32c
iter: 197 05:31:06 -6798.642946c -4.40  -4.30c
iter: 198 05:46:20 -6798.642994c -4.61  -4.36c
iter: 199 06:01:35 -6798.643043c -4.40  -4.30c
Writing to output.gpw (mode='')

iter: 200 06:17:11 -6798.643100c -4.57  -4.25c
iter: 201 06:32:41 -6798.643140c -4.51  -4.16c
iter: 202 06:47:56 -6798.643187c -4.59  -4.19c
iter: 203 07:03:19 -6798.643227c -4.55  -4.12c
iter: 204 07:18:35 -6798.643281c -4.46  -4.13c
Writing to output.gpw (mode='')

iter: 205 07:33:49 -6798.643374c -4.46  -4.09c
iter: 206 07:48:54 -6798.643398c -4.43  -4.02c
iter: 207 08:04:06 -6798.643444c -4.62  -4.06c
iter: 208 08:19:28 -6798.643484c -4.47  -3.96
iter: 209 08:34:44 -6798.643532c -4.62  -4.09c
Writing to output.gpw (mode='')

iter: 210 08:50:12 -6798.643572c -4.52  -4.07c
iter: 211 09:05:24 -6798.643665c -4.41  -4.11c
iter: 212 09:20:30 -6798.643714c -4.64  -4.14c
iter: 213 09:35:57 -6798.643762c -4.37  -4.13c
iter: 214 09:51:11 -6798.643813c -4.81  -4.06c
Writing to output.gpw (mode='')

iter: 215 10:06:46 -6798.643848c -4.40  -4.01c
iter: 216 10:21:58 -6798.643894c -4.75  -4.03c
iter: 217 10:37:10 -6798.643938c -4.38  -4.02c
iter: 218 10:52:27 -6798.643980c -4.61  -4.06c
iter: 219 11:07:47 -6798.644026c -4.53  -4.11c
Writing to output.gpw (mode='')

iter: 220 11:23:14 -6798.644071c -4.67  -4.13c
iter: 221 11:38:45 -6798.644116c -4.44  -4.13c
iter: 222 11:54:16 -6798.644163c -4.61  -4.13c
iter: 223 12:09:41 -6798.644199c -4.67  -4.14c
iter: 224 12:25:07 -6798.644238c -4.51  -4.14c
Writing to output.gpw (mode='')

iter: 225 12:40:19 -6798.644281c -4.62  -4.15c
iter: 226 12:55:54 -6798.644331c -4.65  -4.18c
iter: 227 13:11:11 -6798.644366c -4.46  -4.19c
iter: 228 13:26:39 -6798.644399c -4.88  -4.18c
iter: 229 13:41:48 -6798.644482c -4.30  -4.16c
Writing to output.gpw (mode='')

iter: 230 13:57:19 -6798.644519c -4.82  -4.23c
iter: 231 14:12:39 -6798.644554c -4.41  -4.21c
iter: 232 14:27:55 -6798.644588c -4.91  -4.22c
iter: 233 14:43:07 -6798.644620c -4.48  -4.19c
iter: 234 14:58:24 -6798.644660c -4.83  -4.20c
Writing to output.gpw (mode='')

iter: 235 15:13:40 -6798.644697c -4.62  -4.18c
iter: 236 15:28:42 -6798.644727c -4.71  -4.18c
iter: 237 15:43:46 -6798.644758c -4.72  -4.14c
iter: 238 15:59:19 -6798.644786c -4.70  -4.13c
iter: 239 16:14:56 -6798.644819c -4.74  -4.11c
Writing to output.gpw (mode='')

iter: 240 16:30:26 -6798.644856c -4.75  -4.15c
iter: 241 16:45:56 -6798.644895c -4.68  -4.14c
iter: 242 17:01:11 -6798.644928c -4.55  -4.17c
iter: 243 17:16:42 -6798.644971c -4.79  -4.18c
iter: 244 17:32:02 -6798.644995c -4.67  -4.07c
Writing to output.gpw (mode='')

iter: 245 17:47:20 -6798.645028c -4.66  -4.14c
iter: 246 18:02:30 -6798.645056c -4.86  -4.14c
iter: 247 18:17:43 -6798.645087c -4.63  -4.14c
iter: 248 18:32:57 -6798.645120c -4.67  -4.05c
iter: 249 18:48:19 -6798.645158c -4.81  -4.16c
Writing to output.gpw (mode='')

iter: 250 19:03:27 -6798.645182c -4.59  -4.17c
iter: 251 19:18:46 -6798.645216c -4.91  -4.20c
iter: 252 19:34:03 -6798.645247c -4.60  -4.22c
iter: 253 19:49:39 -6798.645273c -4.82  -4.24c
iter: 254 20:05:10 -6798.645298c -4.79  -4.25c
Writing to output.gpw (mode='')

iter: 255 20:20:43 -6798.645320c -4.76  -4.26c
iter: 256 20:36:00 -6798.645344c -4.78  -4.27c
iter: 257 20:50:50 -6798.645369c -4.82  -4.42c
iter: 258 21:05:46 -6798.645398c -4.75  -4.43c
iter: 259 21:21:17 -6798.645424c -4.67  -4.42c
Writing to output.gpw (mode='')

iter: 260 21:36:33 -6798.645446c -4.97  -4.38c
iter: 261 21:52:08 -6798.645484c -4.69  -4.39c
iter: 262 22:07:35 -6798.645516c -4.79  -4.64c
iter: 263 22:22:56 -6798.645555c -4.51  -4.61c
iter: 264 22:38:33 -6798.645585c -4.75  -4.58c
Writing to output.gpw (mode='')

iter: 265 22:53:54 -6798.645608c -4.89  -4.45c
iter: 266 23:09:13 -6798.645637c -4.71  -4.42c
iter: 267 23:24:12 -6798.645669c -5.02  -4.32c
iter: 268 23:39:30 -6798.645706c -4.91  -4.42c
iter: 269 23:54:39 -6798.645734c -4.52  -4.35c
Writing to output.gpw (mode='')

iter: 270 00:09:58 -6798.645758c -5.11  -4.43c
iter: 271 00:25:11 -6798.645783c -4.60  -4.46c
iter: 272 00:40:24 -6798.645805c -5.03  -4.43c
iter: 273 00:55:29 -6798.645828c -4.72  -4.42c
iter: 274 01:10:42 -6798.645849c -5.03  -4.55c
Writing to output.gpw (mode='')

iter: 275 01:25:45 -6798.645871c -4.66  -4.55c
iter: 276 01:41:19 -6798.645891c -5.15  -4.44c
iter: 277 01:56:32 -6798.645911c -4.72  -4.53c
iter: 278 02:11:38 -6798.645934c -4.99  -4.52c
iter: 279 02:26:56 -6798.645958c -4.90  -4.44c
Writing to output.gpw (mode='')

iter: 280 02:42:02 -6798.645976c -4.91  -4.49c
iter: 281 02:57:25 -6798.645993c -4.99  -4.50c
iter: 282 03:12:53 -6798.646011c -4.90  -4.40c
iter: 283 03:28:13 -6798.646029c -4.97  -4.50c
iter: 284 03:43:33 -6798.646047c -4.97  -4.53c
Writing to output.gpw (mode='')

iter: 285 03:59:04 -6798.646076c -4.71  -4.48c
iter: 286 04:14:41 -6798.646095c -5.09  -4.35c
iter: 287 04:30:03 -6798.646118c -4.81  -4.38c
iter: 288 04:45:24 -6798.646136c -4.90  -4.33c
iter: 289 05:00:42 -6798.646154c -4.89  -4.40c
Writing to output.gpw (mode='')

iter: 290 05:16:18 -6798.646174c -4.92  -4.38c
iter: 291 05:31:44 -6798.646196c -4.91  -4.41c
iter: 292 05:47:02 -6798.646216c -5.11  -4.41c
iter: 293 06:02:07 -6798.646239c -4.74  -4.43c
iter: 294 06:17:16 -6798.646262c -5.20  -4.45c
Writing to output.gpw (mode='')

iter: 295 06:32:51 -6798.646279c -4.75  -4.43c
iter: 296 06:48:21 -6798.646296c -5.20  -4.45c
iter: 297 07:03:46 -6798.646321c -4.82  -4.54c
iter: 298 07:19:09 -6798.646342c -4.80  -4.51c
iter: 299 07:34:33 -6798.646360c -5.18  -4.39c
Writing to output.gpw (mode='')

iter: 300 07:49:49 -6798.646399c -4.79  -4.44c
iter: 301 08:04:56 -6798.646416c -4.97  -4.15c
iter: 302 08:20:27 -6798.646426c -4.75  -4.16c
iter: 303 08:36:08 -6798.646444c -5.13  -4.32c
iter: 304 08:51:22 -6798.646460c -4.90  -4.35c
Writing to output.gpw (mode='')

iter: 305 09:06:39 -6798.646473c -4.94  -4.41c
iter: 306 09:21:57 -6798.646493c -5.01  -4.51c
iter: 307 09:37:12 -6798.646511c -5.02  -5.02c
iter: 308 09:52:18 -6798.646527c -4.99  -5.05c
iter: 309 10:07:33 -6798.646546c -5.04  -5.14c
Writing to output.gpw (mode='')

iter: 310 10:22:42 -6798.646563c -5.04  -5.07c
iter: 311 10:38:12 -6798.646588c -4.85  -5.03c
iter: 312 10:53:42 -6798.646604c -5.09  -4.77c
iter: 313 11:08:45 -6798.646620c -4.88  -4.72c
iter: 314 11:24:04 -6798.646632c -5.16  -4.73c
Writing to output.gpw (mode='')

iter: 315 11:39:40 -6798.646646c -5.00  -4.70c
iter: 316 11:55:04 -6798.646676c -4.81  -4.72c
iter: 317 12:10:23 -6798.646698c -5.11  -4.50c
iter: 318 12:25:46 -6798.646714c -5.00  -4.72c
iter: 319 12:41:06 -6798.646730c -4.99  -4.71c
Writing to output.gpw (mode='')

iter: 320 12:56:22 -6798.646741c -5.20  -4.67c
iter: 321 13:11:36 -6798.646758c -5.03  -4.69c
iter: 322 13:26:55 -6798.646772c -5.16  -4.69c
iter: 323 13:42:13 -6798.646783c -4.92  -4.70c
iter: 324 13:57:33 -6798.646797c -5.33  -4.71c
Writing to output.gpw (mode='')

iter: 325 14:12:59 -6798.646810c -5.10  -4.59c
iter: 326 14:28:16 -6798.646827c -4.94  -4.67c
iter: 327 14:43:38 -6798.646849c -5.21  -4.68c
iter: 328 14:58:40 -6798.646866c -4.96  -4.67c
iter: 329 15:14:04 -6798.646879c -4.89  -4.63c
Writing to output.gpw (mode='')

iter: 330 15:29:35 -6798.646889c -5.34  -4.52c
iter: 331 15:44:51 -6798.646900c -5.19  -4.51c
iter: 332 16:00:15 -6798.646912c -5.04  -4.61c
iter: 333 16:15:39 -6798.646922c -5.29  -4.67c
iter: 334 16:31:05 -6798.646937c -5.06  -4.66c
Writing to output.gpw (mode='')

iter: 335 16:46:16 -6798.646950c -5.29  -4.64c
iter: 336 17:01:36 -6798.646969c -4.96  -4.64c
iter: 337 17:16:39 -6798.646980c -5.21  -4.55c
iter: 338 17:31:54 -6798.646989c -5.18  -4.51c
iter: 339 17:47:18 -6798.646999c -5.27  -4.48c
Writing to output.gpw (mode='')

iter: 340 18:02:23 -6798.647007c -5.14  -4.50c
iter: 341 18:17:49 -6798.647017c -5.23  -4.51c
iter: 342 18:32:59 -6798.647025c -5.25  -4.57c
iter: 343 18:48:21 -6798.647033c -5.22  -4.59c
iter: 344 19:03:18 -6798.647053c -5.20  -4.74c
Writing to output.gpw (mode='')

iter: 345 19:18:26 -6798.647062c -5.11  -4.45c
iter: 346 19:33:53 -6798.647067c -5.22  -4.41c
iter: 347 19:49:22 -6798.647076c -5.27  -4.51c
iter: 348 20:04:48 -6798.647084c -5.25  -4.51c
iter: 349 20:20:04 -6798.647092c -5.18  -4.52c
Writing to output.gpw (mode='')

iter: 350 20:35:26 -6798.647101c -5.36  -4.61c
iter: 351 20:50:56 -6798.647109c -5.19  -4.69c
iter: 352 21:06:33 -6798.647116c -5.44  -4.73c
iter: 353 21:21:46 -6798.647130c -5.14  -4.77c
iter: 354 21:37:19 -6798.647139c -5.46  -4.56c
Writing to output.gpw (mode='')

iter: 355 21:52:51 -6798.647152c -5.03  -4.60c
iter: 356 22:08:22 -6798.647161c -5.34  -4.51c
iter: 357 22:23:31 -6798.647168c -5.13  -4.50c
iter: 358 22:38:49 -6798.647180c -5.41  -4.47c
iter: 359 22:54:19 -6798.647185c -5.24  -4.37c
Writing to output.gpw (mode='')

iter: 360 23:09:45 -6798.647200c -5.53  -4.52c
iter: 361 23:24:58 -6798.647208c -5.18  -4.44c
iter: 362 23:40:09 -6798.647215c -5.39  -4.45c
iter: 363 23:55:23 -6798.647224c -5.25  -4.47c
iter: 364 00:10:31 -6798.647231c -5.55  -4.69c
Writing to output.gpw (mode='')

iter: 365 00:25:42 -6798.647243c -5.07  -4.75c
iter: 366 00:40:54 -6798.647250c -5.64  -4.61c
iter: 367 00:55:56 -6798.647258c -5.15  -4.61c
iter: 368 01:11:14 -6798.647265c -5.49  -4.56c
iter: 369 01:26:33 -6798.647273c -5.23  -4.58c
Writing to output.gpw (mode='')

iter: 370 01:42:08 -6798.647280c -5.42  -4.55c
iter: 371 01:57:27 -6798.647286c -5.47  -4.49c
iter: 372 02:12:52 -6798.647294c -5.25  -4.53c
iter: 373 02:28:00 -6798.647300c -5.33  -4.62c
iter: 374 02:43:29 -6798.647306c -5.49  -4.71c
Writing to output.gpw (mode='')

iter: 375 02:59:04 -6798.647313c -5.37  -4.80c
iter: 376 03:14:20 -6798.647319c -5.40  -4.79c
iter: 377 03:29:36 -6798.647325c -5.43  -4.76c
iter: 378 03:44:49 -6798.647335c -5.30  -4.81c
iter: 379 04:00:03 -6798.647341c -5.37  -4.88c
Writing to output.gpw (mode='')

iter: 380 04:15:20 -6798.647347c -5.46  -4.88c
iter: 381 04:30:56 -6798.647356c -5.32  -4.86c
iter: 382 04:46:07 -6798.647363c -5.55  -4.80c
iter: 383 05:01:20 -6798.647373c -5.21  -4.80c
iter: 384 05:16:33 -6798.647379c -5.59  -4.69c
Writing to output.gpw (mode='')

iter: 385 05:31:43 -6798.647386c -5.25  -4.67c
iter: 386 05:46:33 -6798.647392c -5.55  -4.64c
iter: 387 06:01:51 -6798.647396c -5.45  -4.59c
iter: 388 06:16:55 -6798.647409c -5.30  -4.64c
iter: 389 06:32:17 -6798.647415c -5.39  -4.53c
Writing to output.gpw (mode='')

iter: 390 06:47:28 -6798.647421c -5.35  -4.65c
iter: 391 07:03:00 -6798.647427c -5.41  -4.68c
iter: 392 07:18:25 -6798.647432c -5.51  -4.69c
iter: 393 07:33:43 -6798.647437c -5.42  -4.68c
iter: 394 07:48:48 -6798.647442c -5.70  -4.72c
Writing to output.gpw (mode='')

iter: 395 08:03:52 -6798.647447c -5.43  -4.85c
iter: 396 08:18:56 -6798.647452c -5.64  -4.86c
iter: 397 08:34:06 -6798.647459c -5.48  -4.87c
iter: 398 08:49:20 -6798.647468c -5.42  -4.85c
iter: 399 09:04:21 -6798.647476c -5.31  -4.84c
Writing to output.gpw (mode='')

iter: 400 09:19:47 -6798.647480c -5.59  -4.76c
iter: 401 09:34:52 -6798.647485c -5.51  -4.73c
iter: 402 09:50:25 -6798.647490c -5.54  -4.66c
iter: 403 10:05:44 -6798.647493c -5.53  -4.58c
iter: 404 10:21:05 -6798.647498c -5.42  -4.75c
Writing to output.gpw (mode='')

iter: 405 10:36:24 -6798.647501c -5.68  -4.78c
iter: 406 10:51:59 -6798.647512c -5.39  -4.78c
iter: 407 11:07:45 -6798.647516c -5.48  -4.52c
iter: 408 11:23:21 -6798.647527c -5.41  -4.45c
iter: 409 11:38:50 -6798.647531c -5.49  -4.28c
Writing to output.gpw (mode='')

iter: 410 11:54:21 -6798.647540c -5.42  -4.25c
iter: 411 12:09:38 -6798.647541c -5.67  -4.17c
iter: 412 12:24:51 -6798.647544c -5.48  -4.17c
iter: 413 12:40:29 -6798.647550c -5.64  -4.16c
iter: 414 12:55:57 -6798.647554c -5.54  -4.14c
Writing to output.gpw (mode='')

iter: 415 13:11:37 -6798.647549c -5.21  -4.14c
iter: 416 13:26:59 -6798.647556c -5.40  -4.60c
iter: 417 13:42:33 -6798.647557c -5.41  -4.57c
iter: 418 13:58:09 -6798.647565c -5.67  -4.65c
iter: 419 14:13:32 -6798.647566c -5.67  -4.61c
Writing to output.gpw (mode='')

iter: 420 14:28:47 -6798.647570c -5.78  -4.66c
iter: 421 14:44:02 -6798.647574c -5.56  -4.64c
iter: 422 14:59:14 -6798.647578c -5.58  -4.67c
iter: 423 15:14:37 -6798.647582c -5.54  -4.68c
iter: 424 15:29:44 -6798.647585c -5.89  -4.74c
Writing to output.gpw (mode='')

iter: 425 15:44:55 -6798.647588c -5.50  -4.88c
iter: 426 16:00:11 -6798.647591c -5.88  -4.90c
iter: 427 16:15:22 -6798.647594c -5.67  -4.91c
iter: 428 16:30:51 -6798.647598c -5.79  -4.96c
iter: 429 16:46:29 -6798.647601c -5.65  -4.94c
Writing to output.gpw (mode='')

iter: 430 17:02:00 -6798.647604c -5.72  -4.92c
iter: 431 17:17:25 -6798.647607c -5.88  -4.89c
iter: 432 17:32:43 -6798.647612c -5.64  -4.91c
iter: 433 17:47:58 -6798.647619c -5.52  -4.87c
iter: 434 18:03:20 -6798.647621c -5.99  -4.72c
Writing to output.gpw (mode='')

iter: 435 18:18:48 -6798.647624c -5.60  -4.76c
iter: 436 18:34:01 -6798.647627c -5.89  -4.72c
iter: 437 18:49:16 -6798.647628c -5.74  -4.69c
iter: 438 19:04:33 -6798.647630c -5.81  -4.78c
iter: 439 19:20:05 -6798.647633c -5.86  -4.81c
Writing to output.gpw (mode='')

iter: 440 19:35:39 -6798.647638c -5.76  -4.82c
iter: 441 19:51:06 -6798.647641c -5.90  -4.70c
iter: 442 20:06:42 -6798.647645c -5.60  -4.70c
iter: 443 20:22:08 -6798.647646c -5.98  -4.62c
iter: 444 20:37:24 -6798.647650c -5.74  -4.63c
Writing to output.gpw (mode='')

iter: 445 20:52:27 -6798.647652c -6.06  -4.56c
iter: 446 21:07:30 -6798.647655c -5.65  -4.56c
iter: 447 21:22:50 -6798.647661c -5.78  -4.58c
iter: 448 21:38:16 -6798.647659c -5.62  -4.52c
iter: 449 21:53:36 -6798.647662c -5.61  -4.61c
Writing to output.gpw (mode='')

iter: 450 22:09:06 -6798.647665c -5.83  -4.67c
iter: 451 22:24:36 -6798.647670c -5.86  -4.74c
iter: 452 22:39:42 -6798.647672c -5.72  -4.71c
iter: 453 22:54:52 -6798.647681c -5.72  -4.67c
iter: 454 23:10:01 -6798.647679c -5.87  -4.46c
Writing to output.gpw (mode='')

iter: 455 23:24:57 -6798.647685c -5.87  -4.51c
iter: 456 23:40:26 -6798.647685c -5.99  -4.44c
iter: 457 23:55:45 -6798.647688c -5.71  -4.45c
iter: 458 00:11:19 -6798.647690c -5.80  -4.43c
iter: 459 00:26:31 -6798.647691c -5.69  -4.45c
Writing to output.gpw (mode='')

iter: 460 00:41:33 -6798.647690c -5.84  -4.44c
iter: 461 00:56:50 -6798.647692c -5.74  -4.54c
iter: 462 01:11:52 -6798.647693c -5.88  -4.66c
iter: 463 01:27:22 -6798.647697c -5.66  -4.70c
iter: 464 01:42:51 -6798.647699c -5.90  -4.76c
Writing to output.gpw (mode='')

iter: 465 01:58:27 -6798.647701c -5.81  -4.75c
iter: 466 02:13:54 -6798.647703c -6.05  -4.75c
iter: 467 02:29:25 -6798.647718c -5.52  -4.74c
iter: 468 02:44:30 -6798.647718c -5.79  -4.33c
iter: 469 02:59:30 -6798.647714c -5.65  -4.30c
Writing to output.gpw (mode='')

iter: 470 03:14:37 -6798.647711c -5.74  -4.36c
iter: 471 03:29:34 -6798.647713c -5.68  -4.54c
iter: 472 03:44:49 -6798.647715c -5.87  -4.58c
iter: 473 04:00:02 -6798.647718c -5.64  -4.68c
iter: 474 04:15:30 -6798.647722c -5.78  -4.68c
Writing to output.gpw (mode='')

iter: 475 04:30:42 -6798.647728c -5.83  -4.63c
iter: 476 04:45:49 -6798.647725c -5.96  -4.48c
iter: 477 05:00:56 -6798.647725c -5.77  -4.52c
iter: 478 05:16:05 -6798.647727c -5.91  -4.80c
iter: 479 05:31:32 -6798.647729c -5.99  -4.81c
Writing to output.gpw (mode='')

iter: 480 05:46:49 -6798.647732c -5.90  -4.82c
iter: 481 06:02:12 -6798.647735c -6.05  -4.81c
iter: 482 06:17:29 -6798.647737c -5.77  -4.73c
iter: 483 06:32:47 -6798.647742c -5.91  -4.69c
iter: 484 06:48:11 -6798.647740c -6.07  -4.54c
Writing to output.gpw (mode='')

iter: 485 07:03:36 -6798.647741c -5.88  -4.59c
iter: 486 07:18:53 -6798.647746c -6.05  -4.68c
iter: 487 07:34:30 -6798.647746c -5.61  -4.58c
iter: 488 07:49:50 -6798.647749c -5.81  -4.85c
iter: 489 08:05:18 -6798.647750c -5.87  -4.84c
Writing to output.gpw (mode='')

iter: 490 08:20:42 -6798.647751c -6.18  -4.83c
iter: 491 08:36:10 -6798.647753c -5.85  -4.83c
iter: 492 08:51:24 -6798.647755c -6.03  -4.87c
iter: 493 09:06:37 -6798.647757c -5.78  -4.87c
iter: 494 09:21:55 -6798.647758c -6.07  -4.84c
Writing to output.gpw (mode='')

iter: 495 09:36:55 -6798.647761c -5.83  -4.95c
iter: 496 09:52:00 -6798.647763c -5.89  -4.93c
iter: 497 10:07:11 -6798.647764c -5.96  -4.92c
iter: 498 10:22:35 -6798.647765c -5.96  -5.00c
iter: 499 10:37:46 -6798.647767c -5.91  -5.00c
Writing to output.gpw (mode='')

iter: 500 10:52:58 -6798.647771c -5.77  -4.97c
iter: 501 11:07:57 -6798.647773c -5.91  -4.96c
iter: 502 11:23:20 -6798.647776c -5.82  -4.99c
iter: 503 11:38:31 -6798.647778c -5.85  -4.91c
iter: 504 11:53:30 -6798.647781c -5.79  -4.92c
Writing to output.gpw (mode='')

iter: 505 12:08:28 -6798.647787c -5.61  -4.90c
iter: 506 12:23:41 -6798.647789c -5.81  -4.75c
iter: 507 12:39:03 -6798.647803c -5.51  -4.78c
iter: 508 12:54:28 -6798.647805c -5.66  -4.39c
iter: 509 13:09:35 -6798.647805c -5.56  -4.37c
Writing to output.gpw (mode='')

iter: 510 13:25:15 -6798.647807c -5.72  -4.37c
iter: 511 13:40:46 -6798.647805c -5.38  -4.39c
iter: 512 13:56:15 -6798.647811c -5.57  -4.81c
iter: 513 14:11:38 -6798.647816c -5.39  -4.90c
iter: 514 14:27:14 -6798.647825c -5.48  -4.95c
Writing to output.gpw (mode='')

iter: 515 14:42:50 -6798.647830c -5.33  -4.96c
iter: 516 14:58:11 -6798.647840c -5.26  -4.96c
iter: 517 15:13:32 -6798.647849c -5.23  -5.03c
iter: 518 15:28:55 -6798.647858c -5.23  -5.02c
iter: 519 15:44:35 -6798.647869c -5.11  -4.99c
Writing to output.gpw (mode='')

iter: 520 15:59:49 -6798.647884c -5.00  -4.97c
iter: 521 16:15:23 -6798.647899c -5.13  -4.94c
iter: 522 16:30:51 -6798.647914c -4.97  -4.87c
iter: 523 16:46:33 -6798.647927c -5.11  -4.86c
iter: 524 17:02:00 -6798.647955c -4.75  -4.86c
Writing to output.gpw (mode='')

iter: 525 17:17:20 -6798.648020c -4.58  -4.81c
iter: 526 17:32:36 -6798.648143c -4.26  -4.83c
iter: 527 17:48:00 -6798.648190c -4.46  -4.78c
iter: 528 18:03:27 -6798.648235c -4.43  -4.75c
iter: 529 18:18:54 -6798.648280c -4.62  -4.79c
Writing to output.gpw (mode='')

iter: 530 18:34:36 -6798.648355c -4.31  -4.81c
iter: 531 18:49:54 -6798.648501c -4.13  -4.83c
iter: 532 19:05:23 -6798.648586c -4.18  -4.89c
iter: 533 19:20:48 -6798.648723c -4.12  -4.91c
iter: 534 19:36:13 -6798.648907c -4.06  -4.91c
Writing to output.gpw (mode='')

iter: 535 19:51:43 -6798.649032c -3.89  -4.90c
iter: 536 20:07:09 -6798.649330c -3.93  -4.91c
iter: 537 20:22:26 -6798.649506c -3.87  -4.87c
iter: 538 20:37:54 -6798.649842c -3.73  -4.84c
iter: 539 20:53:18 -6798.650176c -3.78  -4.80c
Writing to output.gpw (mode='')

iter: 540 21:08:40 -6798.650876c -3.31  -4.76c
iter: 541 21:23:54 -6798.651622c -3.52  -4.65c
iter: 542 21:39:03 -6798.652239c -3.42  -4.57c
iter: 543 21:54:20 -6798.652721c -3.39  -4.52c
iter: 544 22:09:35 -6798.653313c -3.44  -4.49c
Writing to output.gpw (mode='')

iter: 545 22:24:44 -6798.654915c -3.16  -4.45c
iter: 546 22:40:12 -6798.657000c -3.09  -4.34c
iter: 547 22:55:43 -6798.659121c -3.20  -4.23c
iter: 548 23:11:00 -6798.661870c -2.78  -4.14c
iter: 549 23:26:21 -6798.663698c -2.91  -4.05c
Writing to output.gpw (mode='')

iter: 550 23:41:24 -6798.665552c -2.96  -4.01c
iter: 551 23:56:38 -6798.668611c -2.84  -3.96
iter: 552 00:11:47 -6798.675712c -2.52  -3.89
iter: 553 00:26:43 -6798.684792c -2.38  -3.74
iter: 554 00:41:45 -6798.689462c -2.53  -3.62
Writing to output.gpw (mode='')

iter: 555 00:56:33 -6798.693923c -2.45  -3.58
iter: 556 01:11:51 -6798.699274c -2.67  -3.54
iter: 557 01:26:59 -6798.717968c -1.98  -3.50
iter: 558 01:42:09 -6798.734808c -2.26  -3.34
iter: 559 01:57:27 -6798.748094c -2.24  -3.25
Writing to output.gpw (mode='')

iter: 560 02:12:43 -6798.758209c -2.22  -3.19
iter: 561 02:28:24 -6798.767266c -2.16  -3.16
iter: 562 02:43:35 -6798.780527c -2.17  -3.13
iter: 563 02:58:58 -6798.798742c -2.06  -3.08
iter: 564 03:14:28 -6798.822312c -1.96  -3.03
Writing to output.gpw (mode='')

iter: 565 03:29:58 -6798.834867c -2.48  -2.96
iter: 566 03:45:22 -6798.844064c -2.14  -2.94
iter: 567 04:00:38 -6798.855021c -2.16  -2.92
iter: 568 04:16:01 -6798.864894c -2.35  -2.90
iter: 569 04:31:45 -6798.882679c -2.16  -2.88
Writing to output.gpw (mode='')

iter: 570 04:47:20 -6798.892158c -2.37  -2.86
iter: 571 05:02:49 -6798.906494c -2.25  -2.85
iter: 572 05:18:04 -6798.911720c -2.48  -2.79
iter: 573 05:33:18 -6798.915215c -2.55  -2.73
iter: 574 05:48:13 -6798.926572c -2.54  -2.82
Writing to output.gpw (mode='')

iter: 575 06:03:24 -6798.926532c -2.64  -2.78
iter: 576 06:18:43 -6798.927796c -2.71  -2.78
iter: 577 06:33:57 -6798.930320c -2.86  -2.80
iter: 578 06:49:21 -6798.933340c -2.85  -2.80
iter: 579 07:04:53 -6798.934859c -2.98  -2.80
Writing to output.gpw (mode='')

iter: 580 07:20:17 -6798.937444c -2.91  -2.81
iter: 581 07:35:32 -6798.940229c -3.03  -2.83
iter: 582 07:50:50 -6798.941622c -3.02  -2.86
iter: 583 08:06:24 -6798.941984c -3.05  -2.87
iter: 584 08:21:41 -6798.942457c -2.96  -2.88
Writing to output.gpw (mode='')

iter: 585 08:37:14 -6798.945098c -2.95  -2.89
iter: 586 08:52:46 -6798.946647c -3.00  -3.02
iter: 587 09:07:59 -6798.947251c -3.18  -3.03
iter: 588 09:23:06 -6798.953128c -2.97  -3.01
iter: 589 09:38:28 -6798.955262c -2.86  -2.94
Writing to output.gpw (mode='')

iter: 590 09:53:53 -6798.956200c -2.96  -2.90
iter: 591 10:09:06 -6798.957059c -3.19  -2.86
iter: 592 10:24:25 -6798.957283c -3.17  -2.84
iter: 593 10:39:55 -6798.953041c -3.15  -2.83
iter: 594 10:55:04 -6798.954170c -3.19  -2.89
Writing to output.gpw (mode='')

iter: 595 11:10:35 -6798.953910c -2.99  -2.90
iter: 596 11:25:57 -6798.955949c -2.87  -2.93
iter: 597 11:41:02 -6798.957618c -3.06  -2.93
iter: 598 11:56:09 -6798.958005c -3.26  -3.01
iter: 599 12:11:07 -6798.958829c -2.88  -3.04
Writing to output.gpw (mode='')

iter: 600 12:26:27 -6798.960971c -2.99  -3.19
iter: 601 12:41:43 -6798.963045c -3.01  -3.24
iter: 602 12:57:04 -6798.964618c -3.04  -3.24
iter: 603 13:12:38 -6798.968531c -2.68  -3.26
iter: 604 13:28:09 -6798.972471c -2.71  -3.36
Writing to output.gpw (mode='')

iter: 605 13:43:31 -6798.980034c -2.54  -3.34
iter: 606 13:58:55 -6798.984138c -2.63  -3.19
iter: 607 14:14:14 -6798.988210c -2.59  -3.16
iter: 608 14:29:37 -6798.994328c -2.51  -3.16
iter: 609 14:45:06 -6798.999151c -2.55  -3.13
Writing to output.gpw (mode='')

iter: 610 15:00:27 -6799.012599c -2.30  -3.10
iter: 611 15:15:47 -6799.021036c -2.44  -2.92
iter: 612 15:31:12 -6799.034581c -2.27  -2.93
iter: 613 15:46:38 -6799.044896c -2.22  -2.90
iter: 614 16:02:12 -6799.053949c -2.29  -2.95
Writing to output.gpw (mode='')

iter: 615 16:17:32 -6799.080652c -2.02  -2.95
iter: 616 16:33:11 -6799.100989c -1.94  -2.90
iter: 617 16:48:37 -6799.115079c -2.22  -2.85
iter: 618 17:04:10 -6799.129507c -2.16  -2.92
iter: 619 17:19:17 -6799.144374c -2.10  -2.90
Writing to output.gpw (mode='')

iter: 620 17:34:49 -6799.160898c -2.11  -2.87
iter: 621 17:50:35 -6799.185043c -2.09  -2.88
iter: 622 18:05:57 -6799.195288c -2.17  -2.76
iter: 623 18:21:30 -6799.213661c -2.19  -2.77
iter: 624 18:37:11 -6799.228816c -2.01  -2.71
Writing to output.gpw (mode='')

iter: 625 18:52:36 -6799.239918c -2.22  -2.75
iter: 626 19:07:59 -6799.248910c -2.21  -2.73
iter: 627 19:23:30 -6799.266262c -2.18  -2.69
iter: 628 19:38:57 -6799.276561c -2.17  -2.67
iter: 629 19:54:26 -6799.320131c -2.13  -2.71
Writing to output.gpw (mode='')

iter: 630 20:09:59 -6799.298647c -2.23  -2.50
iter: 631 20:25:23 -6799.307466c -2.39  -2.57
iter: 632 20:40:48 -6799.313449c -2.35  -2.57
iter: 633 20:55:56 -6799.317781c -2.35  -2.56
iter: 634 21:11:11 -6799.339601c -2.20  -2.60
Writing to output.gpw (mode='')

iter: 635 21:26:28 -6799.329332c -2.18  -2.58
iter: 636 21:41:39 -6799.327060c -2.24  -2.62
iter: 637 21:57:15 -6799.343315c -2.45  -2.71
iter: 638 22:12:38 -6799.346448c -2.45  -2.73
iter: 639 22:27:58 -6799.356261c -2.58  -2.71
Writing to output.gpw (mode='')

iter: 640 22:43:24 -6799.356952c -2.50  -2.66
iter: 641 22:58:36 -6799.354184c -2.56  -2.64
iter: 642 23:14:00 -6799.353949c -2.52  -2.74
iter: 643 23:29:35 -6799.356429c -2.66  -2.85
iter: 644 23:44:59 -6799.359932c -2.59  -2.88
Writing to output.gpw (mode='')

iter: 645 00:00:30 -6799.363434c -2.71  -2.95
iter: 646 00:16:04 -6799.365801c -2.74  -2.94
iter: 647 00:31:36 -6799.369714c -2.73  -2.93
iter: 648 00:46:56 -6799.371980c -2.80  -2.91
iter: 649 01:02:24 -6799.374551c -2.77  -2.88
Writing to output.gpw (mode='')

iter: 650 01:17:58 -6799.378146c -2.85  -2.85
iter: 651 01:33:31 -6799.382589c -2.86  -2.81
iter: 652 01:48:53 -6799.383394c -2.93  -2.75
iter: 653 02:04:06 -6799.378386c -2.89  -2.73
iter: 654 02:19:23 -6799.375025c -3.08  -2.76
Writing to output.gpw (mode='')

iter: 655 02:34:58 -6799.376509c -3.09  -2.83
iter: 656 02:50:17 -6799.379123c -3.15  -2.83
iter: 657 03:05:33 -6799.377992c -2.97  -2.84
iter: 658 03:20:58 -6799.379955c -2.91  -2.90
iter: 659 03:36:36 -6799.380803c -3.04  -2.94
Writing to output.gpw (mode='')

iter: 660 03:52:09 -6799.380445c -3.29  -2.96
iter: 661 04:07:37 -6799.382446c -3.31  -2.99
iter: 662 04:22:55 -6799.382914c -3.27  -3.02
iter: 663 04:38:21 -6799.383451c -3.21  -3.03
iter: 664 04:53:43 -6799.386418c -3.21  -3.03
Writing to output.gpw (mode='')

iter: 665 05:08:45 -6799.388225c -2.95  -3.00
iter: 666 05:23:49 -6799.390795c -3.08  -2.95
iter: 667 05:39:04 -6799.387694c -3.29  -2.90
