
  ___ ___ ___ _ _ _  
 |   |   |_  | | | | 
 | | | | | . | | | | 
 |__ |  _|___|_____|  22.8.0
 |___|_|             

User:   vazumah@c15.hercules
Date:   Sun Feb 12 10:26:22 2023
Arch:   x86_64
Pid:    11314
CWD:    /home/vazumah/Python_projects/LiNRR/autocad_start/slab_experiments/free_slabs/Ca/fcc110/substrate
Python: 3.10.8
gpaw:   /home/vazumah/.conda/envs/GPAW/lib/python3.10/site-packages/gpaw
_gpaw:  /home/vazumah/.conda/envs/GPAW/lib/python3.10/site-packages/
        _gpaw.cpython-310-x86_64-linux-gnu.so
ase:    /home/vazumah/.conda/envs/GPAW/lib/python3.10/site-packages/ase (version 3.22.1)
numpy:  /home/vazumah/.conda/envs/GPAW/lib/python3.10/site-packages/numpy (version 1.24.1)
scipy:  /home/vazumah/.conda/envs/GPAW/lib/python3.10/site-packages/scipy (version 1.10.0)
libxc:  5.2.3
units:  Angstrom and eV
cores: 24
OpenMP: True
OMP_NUM_THREADS: 1

Input parameters:
  eigensolver: {name: dav,
                niter: 3}
  h: 0.16
  kpts: {size: [1, 1, 1]}
  maxiter: 999
  mixer: {backend: pulay,
          beta: 0.01,
          method: difference,
          nmaxold: 5,
          weight: 100}
  occupations: {name: fermi-dirac,
                width: 0.05}
  poissonsolver: {dipolelayer: xy}
  xc: BEEF-vdW

System changes: positions, numbers, cell, pbc, initial_charges, initial_magmoms 

Initialize ...

species:
  Ca:
    name: Calcium
    id: 0641b8f64fa1d43c6d3de45527ace046
    Z: 20.0
    valence: 10
    core: 10
    charge: 0.0
    file: /home/vazumah/.conda/envs/GPAW/share/gpaw/Ca.PBE.gz
    compensation charges: {type: gauss,
                           rc: 0.37,
                           lmax: 2}
    cutoffs: {filter: 2.10,
              core: 1.17}
    valence states:
      #              energy  rcut
      - 3s(2.00)   -47.086   1.175
      - 4s(2.00)    -3.766   1.175
      - 3p(6.00)   -28.008   1.154
      -  p          -0.797   1.154
      -  d           0.000   0.937
  
    # Using partial waves for Ca as LCAO basis

Reference energy: -666391.292358  # eV

Spin-paired calculation

Convergence criteria:
 Maximum [total energy] change in last 3 cyles: 0.0005 eV / electron
 Maximum integral of absolute [dens]ity change: 0.0001 electrons / valence electron
 Maximum integral of absolute [eigenst]ate change: 4e-08 eV^2 / valence electron
 Maximum number of scf [iter]ations: 999
 (Square brackets indicate name in SCF output, whereas a 'c' in
 the SCF output indicates the quantity has converged.)

Symmetries present (total): 4

  ( 1  0  0)  ( 1  0  0)  (-1  0  0)  (-1  0  0)
  ( 0  1  0)  ( 0 -1  0)  ( 0  1  0)  ( 0 -1  0)
  ( 0  0  1)  ( 0  0  1)  ( 0  0  1)  ( 0  0  1)

1 k-point (Gamma)
1 k-point in the irreducible part of the Brillouin zone
       k-points in crystal coordinates                weights
   0:     0.00000000    0.00000000    0.00000000          1/1

Wave functions: Uniform real-space grid
  Kinetic energy operator: 6*3+1=19 point O(h^6) finite-difference Laplacian
  ScaLapack parameters: grid=1x1, blocksize=None
  Wavefunction extrapolation:
    Improved wavefunction reuse through dual PAW basis 

Occupation numbers: Fermi-Dirac:
  width: 0.0500  # eV
 

Eigensolver
   Davidson(niter=3) 

Densities:
  Coarse grid: 104*72*160 grid
  Fine grid: 208*144*320 grid
  Total Charge: 0.000000 

Density mixing:
  Method: separate
  Backend: pulay
  Linear mixing parameter: 0.01
  old densities: 5
  Damping of long wavelength oscillations: 100 

Hamiltonian:
  XC and Coulomb potentials evaluated on a 208*144*320 grid
  Using the BEEF-vdW Exchange-Correlation functional
  Interpolation: tri-quintic (5. degree polynomial)
  Poisson solver: FastPoissonSolver using
    Stencil: 6*3+1=19 point O(h^6) finite-difference Laplacian
    FFT axes: [0, 1]
    FST axes: [2]

Dipole correction along z-axis 

XC parameters: BEEF-vdW with 2 nearest neighbor stencil

Memory estimate:
  Process memory now: 115.90 MiB
  Calculator: 172.04 MiB
    Density: 24.07 MiB
      Arrays: 9.86 MiB
      Localized functions: 10.46 MiB
      Mixer: 3.75 MiB
    Hamiltonian: 7.28 MiB
      Arrays: 6.45 MiB
      XC: 0.00 MiB
      Poisson: 0.00 MiB
      vbar: 0.83 MiB
    Wavefunctions: 140.69 MiB
      Arrays psit_nG: 67.48 MiB
      Eigensolver: 71.84 MiB
      Projections: 0.03 MiB
      Projectors: 1.34 MiB

Total number of cores used: 24
Domain decomposition: 3 x 2 x 4

Number of atoms: 36
Number of atomic orbitals: 180
Number of bands in calculation: 180
Number of valence electrons: 360
Bands to converge: occupied

... initialized

Initializing position-dependent things.

Density initialized from atomic densities
Creating initial wave functions:
  180 bands from LCAO basis set

        .----------------------------------------.  
       /|                                        |  
      / |                                        |  
     /  |                                        |  
    /   |                                        |  
   /    |                                        |  
  /     |                                        |  
 *      |                                        |  
 |      |                                        |  
 |      |                                        |  
 |      |                                        |  
 |      |                                        |  
 |      |                                        |  
 |      |                                        |  
 |      |                                        |  
 |    Ca|          Ca            Ca              |  
 |      |     Ca           Ca            Ca      |  
 | Ca   |        Ca            Ca                |  
 |      |  Ca            Ca            Ca        |  
 Ca     |      Ca           Ca                   |  
 |    Ca|          Ca            Ca              |  
 |      |Ca   Ca       Ca  Ca       Ca   Ca      |  
 | Ca   |        Ca            Ca                |  
 |      |  Ca            Ca            Ca        |  
 Ca     |      Ca           Ca                   |  
 |      |Ca            Ca           Ca           |  
 |      |                                        |  
 |      |                                        |  
 |      |                                        |  
 |      |                                        |  
 |      |                                        |  
 |      |                                        |  
 |      .----------------------------------------.  
 |     /                                        /   
 |    /                                        /    
 |   /                                        /     
 |  /                                        /      
 | /                                        /       
 |/                                        /        
 *----------------------------------------*         

Positions:
   0 Ca     2.790000    1.972828   10.000000    ( 0.0000,  0.0000,  0.0000)
   1 Ca     8.370000    1.972828   10.000000    ( 0.0000,  0.0000,  0.0000)
   2 Ca    13.950000    1.972828   10.000000    ( 0.0000,  0.0000,  0.0000)
   3 Ca     2.790000    5.918484   10.000000    ( 0.0000,  0.0000,  0.0000)
   4 Ca     8.370000    5.918484   10.000000    ( 0.0000,  0.0000,  0.0000)
   5 Ca    13.950000    5.918484   10.000000    ( 0.0000,  0.0000,  0.0000)
   6 Ca     2.790000    9.864140   10.000000    ( 0.0000,  0.0000,  0.0000)
   7 Ca     8.370000    9.864140   10.000000    ( 0.0000,  0.0000,  0.0000)
   8 Ca    13.950000    9.864140   10.000000    ( 0.0000,  0.0000,  0.0000)
   9 Ca     0.000000    0.000000   11.972828    ( 0.0000,  0.0000,  0.0000)
  10 Ca     5.580000    0.000000   11.972828    ( 0.0000,  0.0000,  0.0000)
  11 Ca    11.160000    0.000000   11.972828    ( 0.0000,  0.0000,  0.0000)
  12 Ca     0.000000    3.945656   11.972828    ( 0.0000,  0.0000,  0.0000)
  13 Ca     5.580000    3.945656   11.972828    ( 0.0000,  0.0000,  0.0000)
  14 Ca    11.160000    3.945656   11.972828    ( 0.0000,  0.0000,  0.0000)
  15 Ca     0.000000    7.891312   11.972828    ( 0.0000,  0.0000,  0.0000)
  16 Ca     5.580000    7.891312   11.972828    ( 0.0000,  0.0000,  0.0000)
  17 Ca    11.160000    7.891312   11.972828    ( 0.0000,  0.0000,  0.0000)
  18 Ca     2.790000    1.972828   13.945656    ( 0.0000,  0.0000,  0.0000)
  19 Ca     8.370000    1.972828   13.945656    ( 0.0000,  0.0000,  0.0000)
  20 Ca    13.950000    1.972828   13.945656    ( 0.0000,  0.0000,  0.0000)
  21 Ca     2.790000    5.918484   13.945656    ( 0.0000,  0.0000,  0.0000)
  22 Ca     8.370000    5.918484   13.945656    ( 0.0000,  0.0000,  0.0000)
  23 Ca    13.950000    5.918484   13.945656    ( 0.0000,  0.0000,  0.0000)
  24 Ca     2.790000    9.864140   13.945656    ( 0.0000,  0.0000,  0.0000)
  25 Ca     8.370000    9.864140   13.945656    ( 0.0000,  0.0000,  0.0000)
  26 Ca    13.950000    9.864140   13.945656    ( 0.0000,  0.0000,  0.0000)
  27 Ca     0.000000    0.000000   15.918484    ( 0.0000,  0.0000,  0.0000)
  28 Ca     5.580000    0.000000   15.918484    ( 0.0000,  0.0000,  0.0000)
  29 Ca    11.160000    0.000000   15.918484    ( 0.0000,  0.0000,  0.0000)
  30 Ca     0.000000    3.945656   15.918484    ( 0.0000,  0.0000,  0.0000)
  31 Ca     5.580000    3.945656   15.918484    ( 0.0000,  0.0000,  0.0000)
  32 Ca    11.160000    3.945656   15.918484    ( 0.0000,  0.0000,  0.0000)
  33 Ca     0.000000    7.891312   15.918484    ( 0.0000,  0.0000,  0.0000)
  34 Ca     5.580000    7.891312   15.918484    ( 0.0000,  0.0000,  0.0000)
  35 Ca    11.160000    7.891312   15.918484    ( 0.0000,  0.0000,  0.0000)

Unit cell:
           periodic     x           y           z      points  spacing
  1. axis:    yes   16.740000    0.000000    0.000000   104     0.1610
  2. axis:    yes    0.000000   11.836968    0.000000    72     0.1644
  3. axis:    no     0.000000    0.000000   25.918484   160     0.1620

  Lengths:  16.740000  11.836968  25.918484
  Angles:   90.000000  90.000000  90.000000

Effective grid spacing dv^(1/3) = 0.1624

     iter     time        total  log10-change:
                         energy  eigst   dens
iter:   1 10:33:07 -1552.985991
iter:   2 10:39:15 -1562.372365  +0.76  -1.65
iter:   3 10:45:21 -1568.203092  +0.43  -1.62
iter:   4 10:51:43 -1572.412740  +0.43  -1.57
Writing to output.gpw (mode='')

iter:   5 10:57:54 -1579.700001  +0.16  -1.51
iter:   6 11:04:21 -1583.621269  +0.46  -1.55
iter:   7 11:10:25 -1586.919506  -0.09  -1.48
iter:   8 11:16:37 -1588.715019  +0.18  -1.40
iter:   9 11:22:42 -1591.955463  -0.27  -1.36
Writing to output.gpw (mode='')

iter:  10 11:28:56 -1588.437318  -0.25  -1.30
iter:  11 11:35:25 -1584.617422  -0.73  -1.31
iter:  12 11:41:46 -1585.207880  -0.78  -1.34
iter:  13 11:48:01 -1585.424097  -1.01  -1.34
iter:  14 11:54:31 -1590.180246  -0.91  -1.34
Writing to output.gpw (mode='')

iter:  15 12:00:59 -1577.036242  -0.25  -1.30
iter:  16 12:07:10 -1579.391992  +0.29  -1.49
iter:  17 12:13:19 -1588.030779  -0.09  -1.51
iter:  18 12:19:43 -1589.910844  +0.08  -1.52
iter:  19 12:25:56 -1589.761552  -0.36  -1.44
Writing to output.gpw (mode='')

iter:  20 12:32:13 -1622.618629  -0.03  -1.41
iter:  21 12:38:29 -1576.534991  +0.36  -1.06
iter:  22 12:44:36 -1588.464705  -0.42  -1.27
iter:  23 12:50:45 -1580.266882  -0.49  -1.24
iter:  24 12:57:02 -1584.300648  -0.67  -1.51
Writing to output.gpw (mode='')

iter:  25 13:03:17 -1580.326079  -0.49  -1.46
iter:  26 13:09:46 -1580.992146  -0.53  -1.60
iter:  27 13:16:14 -1590.235132  -0.44  -1.62
iter:  28 13:22:20 -1590.590192  -0.24  -1.40
iter:  29 13:28:37 -1588.358504  -0.90  -1.36
Writing to output.gpw (mode='')

iter:  30 13:35:16 -1588.598162  -1.00  -1.34
iter:  31 13:41:37 -1579.173121  -0.32  -1.32
iter:  32 13:47:53 -1580.788756  +0.10  -1.99
iter:  33 13:53:59 -1581.185119  -0.24  -2.03
iter:  34 14:00:20 -1582.854832  -0.59  -2.02
Writing to output.gpw (mode='')

iter:  35 14:06:36 -1583.351708  -0.24  -1.75
iter:  36 14:12:40 -1583.479477  -0.83  -1.69
iter:  37 14:18:40 -1583.149549  -0.70  -1.64
iter:  38 14:24:53 -1582.123032  -1.21  -1.62
iter:  39 14:30:55 -1582.470268  -1.47  -1.66
Writing to output.gpw (mode='')

iter:  40 14:36:59 -1581.623172  -1.30  -1.63
iter:  41 14:43:10 -1581.858999  -1.70  -1.71
iter:  42 14:49:23 -1582.484493  -0.51  -1.70
iter:  43 14:55:21 -1580.854012  -0.91  -1.71
iter:  44 15:01:28 -1581.678590  -0.86  -1.88
Writing to output.gpw (mode='')

iter:  45 15:07:35 -1581.407428  -0.88  -1.95
iter:  46 15:13:33 -1581.426777  -1.67  -1.94
iter:  47 15:19:40 -1581.309040c -1.77  -1.91
iter:  48 15:25:51 -1581.363213c -2.10  -1.92
iter:  49 15:31:59 -1581.264321c -2.13  -1.89
Writing to output.gpw (mode='')

iter:  50 15:38:04 -1582.397507  -1.37  -1.90
iter:  51 15:44:00 -1580.682254  -1.23  -1.68
iter:  52 15:50:16 -1581.030381  -1.23  -1.87
iter:  53 15:56:31 -1580.956169  -1.92  -1.89
iter:  54 16:02:47 -1580.929026c -1.19  -1.97
Writing to output.gpw (mode='')

iter:  55 16:09:06 -1581.092182c -1.44  -2.01
iter:  56 16:15:23 -1581.173015  -0.87  -2.10
iter:  57 16:21:36 -1581.039582c -2.03  -2.09
iter:  58 16:27:53 -1582.923411  -0.87  -2.12
iter:  59 16:33:58 -1581.980187  -1.34  -1.66
Writing to output.gpw (mode='')

iter:  60 16:40:25 -1582.800107  -1.68  -1.68
iter:  61 16:46:46 -1582.176801  -1.64  -1.63
iter:  62 16:52:58 -1585.230318  -1.07  -1.64
iter:  63 16:59:22 -1582.619778  -1.23  -1.46
iter:  64 17:05:28 -1585.069632  -1.32  -1.51
Writing to output.gpw (mode='')

iter:  65 17:11:35 -1583.597001  -1.70  -1.45
iter:  66 17:17:51 -1580.568902  -0.52  -1.47
iter:  67 17:24:13 -1581.202859  -0.93  -1.84
iter:  68 17:30:31 -1580.770637  -1.18  -1.89
iter:  69 17:36:40 -1580.996641  -1.19  -1.99
Writing to output.gpw (mode='')

iter:  70 17:42:58 -1581.122459  -1.47  -1.98
iter:  71 17:49:23 -1581.609011  -1.14  -2.00
iter:  72 17:55:57 -1580.993657  -0.82  -1.97
iter:  73 18:02:26 -1582.888944  -0.87  -2.11
iter:  74 18:09:02 -1583.169708  -0.36  -1.73
Writing to output.gpw (mode='')

iter:  75 18:15:29 -1582.567738  -1.22  -1.68
iter:  76 18:22:00 -1581.552303  -1.62  -1.68
iter:  77 18:28:36 -1580.651268  -1.48  -1.73
iter:  78 18:34:59 -1580.701691  -0.87  -1.98
iter:  79 18:41:29 -1580.805182c -1.30  -2.04
Writing to output.gpw (mode='')

iter:  80 18:48:01 -1580.977705  -0.83  -2.17
iter:  81 18:54:23 -1580.991959  -1.43  -2.18
iter:  82 19:00:39 -1581.059648c -2.01  -2.26
iter:  83 19:07:09 -1581.068281c -1.82  -2.23
iter:  84 19:13:36 -1581.075793c -2.33  -2.19
Writing to output.gpw (mode='')

iter:  85 19:20:09 -1581.355224  -2.02  -2.20
iter:  86 19:26:30 -1581.164063  -1.94  -2.06
iter:  87 19:32:47 -1581.102507  -2.41  -2.10
iter:  88 19:39:04 -1581.071432c -1.91  -2.10
iter:  89 19:45:13 -1581.006671c -2.06  -2.14
Writing to output.gpw (mode='')

iter:  90 19:51:19 -1580.935112c -1.98  -2.16
iter:  91 19:57:42 -1580.944619c -1.61  -2.27
iter:  92 20:03:51 -1580.967033c -2.38  -2.32
iter:  93 20:09:56 -1581.178336  -1.88  -2.35
iter:  94 20:16:06 -1581.030651  -2.24  -2.15
Writing to output.gpw (mode='')

iter:  95 20:22:15 -1582.361346  -1.11  -2.18
iter:  96 20:28:21 -1581.378322  -1.58  -1.72
iter:  97 20:34:29 -1581.974062  -1.87  -1.78
iter:  98 20:40:33 -1582.169896  -1.91  -1.74
iter:  99 20:46:55 -1581.058258  -1.75  -1.71
Writing to output.gpw (mode='')

iter: 100 20:53:14 -1580.591159  -1.14  -1.82
iter: 101 20:59:29 -1580.938342  -1.12  -2.13
iter: 102 21:05:44 -1581.000440  -1.97  -2.14
iter: 103 21:11:56 -1581.004546c -1.72  -2.16
iter: 104 21:18:09 -1581.036403c -1.47  -2.21
Writing to output.gpw (mode='')

iter: 105 21:24:24 -1581.017306c -2.14  -2.22
iter: 106 21:30:46 -1581.005670c -2.78  -2.23
iter: 107 21:37:02 -1581.200968  -1.77  -2.25
iter: 108 21:43:17 -1580.954405  -1.40  -2.16
iter: 109 21:49:26 -1581.094200  -1.34  -2.38
Writing to output.gpw (mode='')

iter: 110 21:55:40 -1581.110406c -1.40  -2.28
iter: 111 22:02:05 -1581.113765c -1.98  -2.24
iter: 112 22:08:21 -1581.164970c -2.05  -2.21
iter: 113 22:14:35 -1581.337412  -1.74  -2.14
iter: 114 22:21:07 -1581.418189  -1.54  -2.04
Writing to output.gpw (mode='')

iter: 115 22:27:53 -1580.939925  -1.80  -1.99
iter: 116 22:34:14 -1581.006914  -1.95  -2.17
iter: 117 22:40:49 -1581.133545  -2.70  -2.19
iter: 118 22:46:54 -1581.986001  -1.56  -2.12
iter: 119 22:53:18 -1582.122501  -1.38  -1.78
Writing to output.gpw (mode='')

iter: 120 22:59:43 -1580.980517  -1.76  -1.75
iter: 121 23:05:51 -1580.650815  -1.24  -1.90
iter: 122 23:11:59 -1580.859134  -1.00  -2.13
iter: 123 23:18:09 -1581.213182  -1.93  -2.20
iter: 124 23:24:27 -1581.677704  -1.98  -2.08
Writing to output.gpw (mode='')

iter: 125 23:30:43 -1581.484775  -1.79  -1.88
iter: 126 23:36:53 -1580.966377  -1.34  -1.87
iter: 127 23:43:20 -1581.024146  -1.41  -2.31
iter: 128 23:49:32 -1581.021657c -1.41  -2.36
iter: 129 23:52:07 -1581.210083  -1.91  -2.48
Writing to output.gpw (mode='')

iter: 130 23:53:11 -1581.022920  -2.22  -2.18
iter: 131 23:54:14 -1580.983885  -2.38  -2.33
iter: 132 23:55:17 -1580.999434c -1.94  -2.71
iter: 133 23:56:20 -1581.008922c -2.08  -2.75
iter: 134 23:57:23 -1581.032642c -2.36  -2.74
Writing to output.gpw (mode='')

iter: 135 23:58:27 -1581.037802c -2.17  -2.60
iter: 136 23:59:30 -1581.064055c -2.82  -2.55
iter: 137 00:00:32 -1581.034432c -3.03  -2.41
iter: 138 00:01:35 -1581.074051c -3.06  -2.44
iter: 139 00:02:38 -1581.103873c -2.79  -2.33
Writing to output.gpw (mode='')

iter: 140 00:03:42 -1581.035629c -2.82  -2.28
iter: 141 00:04:45 -1581.004553c -2.87  -2.34
iter: 142 00:05:48 -1580.998296c -2.19  -2.56
iter: 143 00:06:51 -1581.006708c -2.49  -2.62
iter: 144 00:07:54 -1581.012201c -2.18  -2.67
Writing to output.gpw (mode='')

iter: 145 00:08:58 -1581.021272c -3.03  -2.70
iter: 146 00:10:01 -1581.024273c -2.71  -2.65
iter: 147 00:11:04 -1581.027225c -3.24  -2.64
iter: 148 00:12:07 -1581.047212c -2.93  -2.60
iter: 149 00:13:09 -1581.071151c -2.42  -2.52
Writing to output.gpw (mode='')

iter: 150 00:14:13 -1581.021120c -2.78  -2.45
iter: 151 00:15:16 -1581.052949c -3.27  -2.53
iter: 152 00:16:19 -1581.009603c -2.80  -2.46
iter: 153 00:17:22 -1581.007736c -2.60  -2.56
iter: 154 00:18:25 -1581.042258c -2.11  -2.67
Writing to output.gpw (mode='')

iter: 155 00:19:29 -1581.015439c -3.09  -2.59
iter: 156 00:20:32 -1581.047102c -2.94  -2.65
iter: 157 00:21:35 -1581.018397c -2.90  -2.54
iter: 158 00:22:38 -1581.050828c -2.40  -2.62
iter: 159 00:23:41 -1581.008836c -2.40  -2.52
Writing to output.gpw (mode='')

iter: 160 00:24:45 -1581.016803c -2.52  -2.69
iter: 161 00:25:47 -1581.048236c -2.73  -2.68
iter: 162 00:26:50 -1581.058617c -2.30  -2.56
iter: 163 00:27:53 -1581.091134c -2.63  -2.49
iter: 164 00:28:56 -1581.075164c -2.30  -2.39
Writing to output.gpw (mode='')

iter: 165 00:30:00 -1581.039311c -3.37  -2.38
iter: 166 00:31:03 -1581.030423c -2.32  -2.44
iter: 167 00:32:06 -1581.032697c -2.28  -2.64
iter: 168 00:33:09 -1581.026166c -2.98  -2.63
iter: 169 00:34:12 -1581.025448c -3.38  -2.64
Writing to output.gpw (mode='')

iter: 170 00:35:16 -1581.040322c -3.28  -2.64
iter: 171 00:36:19 -1581.020528c -2.71  -2.57
iter: 172 00:37:22 -1581.023662c -2.66  -2.63
iter: 173 00:38:25 -1581.029472c -2.97  -2.64
iter: 174 00:39:28 -1581.029899c -3.25  -2.61
Writing to output.gpw (mode='')

iter: 175 00:40:32 -1581.020421c -2.96  -2.61
iter: 176 00:41:34 -1581.021968c -3.00  -2.66
iter: 177 00:42:37 -1581.025057c -3.41  -2.67
iter: 178 00:43:40 -1581.018655c -2.92  -2.79
iter: 179 00:44:43 -1581.019547c -3.04  -3.07
Writing to output.gpw (mode='')

iter: 180 00:45:47 -1581.019815c -3.71  -3.10
iter: 181 00:46:50 -1581.019868c -3.57  -3.09
iter: 182 00:47:53 -1581.020083c -4.06  -3.08
iter: 183 00:48:56 -1581.019759c -4.15  -3.10
iter: 184 00:49:59 -1581.022176c -3.94  -3.10
Writing to output.gpw (mode='')

iter: 185 00:51:03 -1581.025795c -3.51  -2.99
iter: 186 00:52:06 -1581.021468c -3.41  -2.87
iter: 187 00:53:09 -1581.019254c -4.04  -2.92
iter: 188 00:54:12 -1581.018284c -3.27  -3.01
iter: 189 00:55:15 -1581.019248c -2.98  -3.22
Writing to output.gpw (mode='')

iter: 190 00:56:19 -1581.019630c -3.54  -3.21
iter: 191 00:57:22 -1581.021443c -3.46  -3.20
iter: 192 00:58:25 -1581.019966c -3.89  -3.11
iter: 193 00:59:28 -1581.023765c -3.83  -3.14
iter: 194 01:00:31 -1581.024308c -3.57  -2.92
Writing to output.gpw (mode='')

iter: 195 01:01:35 -1581.024949c -3.90  -2.89
iter: 196 01:02:37 -1581.025107c -3.79  -2.86
iter: 197 01:03:40 -1581.020314c -3.47  -2.84
iter: 198 01:04:43 -1581.022070c -3.20  -3.07
iter: 199 01:05:46 -1581.022850c -3.03  -3.01
Writing to output.gpw (mode='')

iter: 200 01:06:51 -1581.023108c -2.78  -3.03
iter: 201 01:07:53 -1581.019676c -3.65  -3.01
iter: 202 01:08:56 -1581.020695c -3.96  -3.09
iter: 203 01:09:59 -1581.018711c -3.75  -3.07
iter: 204 01:11:02 -1581.019168c -3.55  -3.23
Writing to output.gpw (mode='')

iter: 205 01:12:06 -1581.019486c -3.22  -3.45
iter: 206 01:13:09 -1581.019263c -4.00  -3.42
iter: 207 01:14:12 -1581.019110c -4.24  -3.43
iter: 208 01:15:15 -1581.019246c -4.36  -3.45
iter: 209 01:16:18 -1581.020190c -4.06  -3.44
Writing to output.gpw (mode='')

iter: 210 01:17:23 -1581.020568c -3.93  -3.25
iter: 211 01:18:26 -1581.019195c -3.94  -3.24
iter: 212 01:19:29 -1581.019495c -4.09  -3.36
iter: 213 01:20:32 -1581.019774c -4.28  -3.35
iter: 214 01:21:35 -1581.020295c -3.91  -3.33
Writing to output.gpw (mode='')

iter: 215 01:22:39 -1581.018916c -3.77  -3.27
iter: 216 01:23:42 -1581.019069c -4.32  -3.43
iter: 217 01:24:45 -1581.019233c -4.37  -3.45
iter: 218 01:25:48 -1581.019471c -3.83  -3.44
iter: 219 01:26:51 -1581.019582c -4.34  -3.44
Writing to output.gpw (mode='')

iter: 220 01:27:55 -1581.019643c -4.22  -3.40
iter: 221 01:28:58 -1581.019264c -4.82  -3.37
iter: 222 01:30:01 -1581.019259c -4.70  -3.43
iter: 223 01:31:04 -1581.019283c -4.32  -3.50
iter: 224 01:32:07 -1581.019354c -5.14  -3.49
Writing to output.gpw (mode='')

iter: 225 01:33:13 -1581.019614c -4.47  -3.47
iter: 226 01:34:16 -1581.019827c -4.14  -3.41
iter: 227 01:35:19 -1581.020013c -4.35  -3.36
iter: 228 01:36:22 -1581.019308c -4.57  -3.31
iter: 229 01:37:25 -1581.019197c -4.59  -3.37
Writing to output.gpw (mode='')

iter: 230 01:38:29 -1581.019252c -4.29  -3.50
iter: 231 01:39:32 -1581.019240c -4.91  -3.50
iter: 232 01:40:35 -1581.020096c -4.43  -3.52
iter: 233 01:41:38 -1581.019282c -4.34  -3.34
iter: 234 01:42:41 -1581.019157c -4.52  -3.43
Writing to output.gpw (mode='')

iter: 235 01:43:48 -1581.019297c -4.38  -3.62
iter: 236 01:44:51 -1581.019826c -4.75  -3.61
iter: 237 01:45:54 -1581.019208c -4.49  -3.41
iter: 238 01:46:58 -1581.019223c -4.55  -3.51
iter: 239 01:48:01 -1581.019691c -4.02  -3.72
Writing to output.gpw (mode='')

iter: 240 01:49:07 -1581.019696c -3.84  -3.56
iter: 241 01:50:10 -1581.019021c -4.53  -3.50
iter: 242 01:51:13 -1581.019129c -4.54  -3.81
iter: 243 01:52:16 -1581.019259c -5.06  -3.83
iter: 244 01:53:19 -1581.019456c -5.04  -3.75
Writing to output.gpw (mode='')

iter: 245 01:54:25 -1581.019148c -4.31  -3.59
iter: 246 01:55:28 -1581.019177c -4.14  -3.84
iter: 247 01:56:31 -1581.019327c -4.73  -3.84
iter: 248 01:57:34 -1581.019253c -4.63  -3.80
iter: 249 01:58:37 -1581.019258c -5.45  -3.80
Writing to output.gpw (mode='')

iter: 250 01:59:41 -1581.019282c -5.03  -3.78
iter: 251 02:00:44 -1581.019271c -5.18  -3.75
iter: 252 02:01:47 -1581.019160c -5.01  -3.74
iter: 253 02:02:50 -1581.019197c -4.50  -3.86
iter: 254 02:03:53 -1581.019139c -4.58  -3.86
Writing to output.gpw (mode='')

iter: 255 02:04:58 -1581.019147c -4.98  -3.97
iter: 256 02:06:01 -1581.019149c -5.41  -4.00
iter: 257 02:07:04 -1581.019156c -6.03  -4.01c
iter: 258 02:08:07 -1581.019168c -5.59  -4.03c
iter: 259 02:09:10 -1581.019204c -5.00  -4.02c
Writing to output.gpw (mode='')

iter: 260 02:10:14 -1581.019295c -4.65  -3.88
iter: 261 02:11:17 -1581.019169c -4.74  -3.79
iter: 262 02:12:20 -1581.019200c -4.55  -4.12c
iter: 263 02:13:23 -1581.019344c -4.95  -4.04c
iter: 264 02:14:26 -1581.019324c -4.48  -3.73
Writing to output.gpw (mode='')

iter: 265 02:15:31 -1581.019314c -5.45  -3.70
iter: 266 02:16:34 -1581.019236c -5.55  -3.68
iter: 267 02:17:37 -1581.019153c -5.08  -3.71
iter: 268 02:18:40 -1581.019158c -5.15  -4.25c
iter: 269 02:19:43 -1581.019165c -5.97  -4.25c
Writing to output.gpw (mode='')

iter: 270 02:20:47 -1581.019171c -5.50  -4.27c
iter: 271 02:21:50 -1581.019182c -5.85  -4.24c
iter: 272 02:22:53 -1581.019186c -5.37  -4.22c
iter: 273 02:23:56 -1581.019167c -6.11  -4.18c
iter: 274 02:24:59 -1581.019165c -6.20  -4.24c
Writing to output.gpw (mode='')

iter: 275 02:26:04 -1581.019166c -6.01  -4.26c
iter: 276 02:27:07 -1581.019166c -5.93  -4.26c
iter: 277 02:28:10 -1581.019169c -5.83  -4.22c
iter: 278 02:29:13 -1581.019169c -5.98  -4.36c
iter: 279 02:30:16 -1581.019168c -6.29  -4.43c
Writing to output.gpw (mode='')

iter: 280 02:31:20 -1581.019168c -6.22  -4.50c
iter: 281 02:32:23 -1581.019169c -6.43  -4.57c
iter: 282 02:33:26 -1581.019171c -6.18  -4.59c
iter: 283 02:34:29 -1581.019193c -5.64  -4.51c
iter: 284 02:35:33 -1581.019172c -5.80  -4.16c
Writing to output.gpw (mode='')

iter: 285 02:36:37 -1581.019178c -5.67  -4.26c
iter: 286 02:37:40 -1581.019168c -6.00  -4.40c
iter: 287 02:38:43 -1581.019169c -6.36  -4.56c
iter: 288 02:39:46 -1581.019174c -5.67  -4.72c
iter: 289 02:40:49 -1581.019177c -6.06  -4.56c
Writing to output.gpw (mode='')

iter: 290 02:41:53 -1581.019175c -6.06  -4.43c
iter: 291 02:42:56 -1581.019180c -6.46  -4.42c
iter: 292 02:43:59 -1581.019179c -6.24  -4.30c
iter: 293 02:45:02 -1581.019169c -6.21  -4.28c
iter: 294 02:46:06 -1581.019171c -6.36  -4.53c
Writing to output.gpw (mode='')

iter: 295 02:47:10 -1581.019171c -6.73  -4.51c
iter: 296 02:48:13 -1581.019172c -6.20  -4.51c
iter: 297 02:49:16 -1581.019180c -5.99  -4.52c
iter: 298 02:50:19 -1581.019192c -5.56  -4.38c
iter: 299 02:51:22 -1581.019177c -6.03  -4.23c
Writing to output.gpw (mode='')

iter: 300 02:52:27 -1581.019171c -6.55  -4.30c
iter: 301 02:53:30 -1581.019170c -6.18  -4.52c
iter: 302 02:54:33 -1581.019171c -6.53  -4.56c
iter: 303 02:55:36 -1581.019172c -6.39  -4.60c
iter: 304 02:56:39 -1581.019172c -7.03  -4.61c
Writing to output.gpw (mode='')

iter: 305 02:57:43 -1581.019178c -6.15  -4.63c
iter: 306 02:58:46 -1581.019172c -6.40  -4.48c
iter: 307 02:59:49 -1581.019181c -6.51  -4.55c
iter: 308 03:00:52 -1581.019184c -6.10  -4.36c
iter: 309 03:01:55 -1581.019178c -6.51  -4.30c
Writing to output.gpw (mode='')

iter: 310 03:03:00 -1581.019175c -6.83  -4.35c
iter: 311 03:04:03 -1581.019173c -6.56  -4.39c
iter: 312 03:05:06 -1581.019181c -6.44  -4.47c
iter: 313 03:06:09 -1581.019171c -6.22  -4.38c
iter: 314 03:07:12 -1581.019172c -5.98  -4.65c
Writing to output.gpw (mode='')

iter: 315 03:08:16 -1581.019177c -6.12  -4.70c
iter: 316 03:09:20 -1581.019174c -6.38  -4.58c
iter: 317 03:10:23 -1581.019177c -6.12  -4.64c
iter: 318 03:11:26 -1581.019175c -6.48  -4.54c
iter: 319 03:12:29 -1581.019175c -7.04  -4.60c
Writing to output.gpw (mode='')

iter: 320 03:13:33 -1581.019174c -6.80  -4.63c
iter: 321 03:14:36 -1581.019174c -6.75  -4.77c
iter: 322 03:15:39 -1581.019174c -7.03  -4.76c
iter: 323 03:16:43 -1581.019174c -6.89  -4.74c
iter: 324 03:17:46 -1581.019174c -7.04  -4.81c
Writing to output.gpw (mode='')

iter: 325 03:18:50 -1581.019174c -6.84  -4.75c
iter: 326 03:19:53 -1581.019174c -7.16  -4.82c
iter: 327 03:20:56 -1581.019174c -6.79  -4.82c
iter: 328 03:21:59 -1581.019174c -6.52  -4.77c
iter: 329 03:23:03 -1581.019174c -6.60  -4.98c
Writing to output.gpw (mode='')

iter: 330 03:24:08 -1581.019174c -6.51  -4.96c
iter: 331 03:25:11 -1581.019174c -6.86  -4.91c
iter: 332 03:26:14 -1581.019174c -7.00  -4.93c
iter: 333 03:27:17 -1581.019174c -7.17  -5.07c
iter: 334 03:28:20 -1581.019174c -7.38  -5.04c
Writing to output.gpw (mode='')

iter: 335 03:29:25 -1581.019174c -7.31  -5.03c
iter: 336 03:30:28 -1581.019174c -7.55c -5.06c

Converged after 336 iterations.

Dipole moment: (-23.293756, -15.763933, -0.000116) |e|*Ang

Energy contributions relative to reference atoms: (reference = -666391.292358)

Kinetic:       +335.873734
Potential:     -234.982701
External:        +0.000000
XC:            -1664.696766
Entropy (-ST):   -0.000000
Local:          -17.213440
--------------------------
Free energy:   -1581.019174
Extrapolated:  -1581.019174

Dipole-layer corrected work functions: -inf, -inf eV

 Band  Eigenvalues  Occupancy
    0    -46.05591    2.00000
    1    -46.05585    2.00000
    2    -46.05551    2.00000
    3    -46.05550    2.00000
    4    -46.05542    2.00000
    5    -46.05541    2.00000
    6    -46.05326    2.00000
    7    -46.05326    2.00000
    8    -46.05320    2.00000
    9    -46.05320    2.00000
   10    -46.05286    2.00000
   11    -46.05286    2.00000
   12    -46.05285    2.00000
   13    -46.05285    2.00000
   14    -46.05277    2.00000
   15    -46.05277    2.00000
   16    -46.05276    2.00000
   17    -46.05276    2.00000
   18    -45.37363    2.00000
   19    -45.37194    2.00000
   20    -45.37171    2.00000
   21    -45.36911    2.00000
   22    -45.36911    2.00000
   23    -45.36832    2.00000
   24    -45.36831    2.00000
   25    -45.36831    2.00000
   26    -45.36808    2.00000
   27    -45.36808    2.00000
   28    -45.36808    2.00000
   29    -45.36649    2.00000
   30    -45.36649    2.00000
   31    -45.36638    2.00000
   32    -45.36625    2.00000
   33    -45.36625    2.00000
   34    -45.36547    2.00000
   35    -45.36547    2.00000
   36    -27.00693    2.00000
   37    -27.00673    2.00000
   38    -27.00656    2.00000
   39    -27.00627    2.00000
   40    -27.00613    2.00000
   41    -27.00570    2.00000
   42    -27.00252    2.00000
   43    -27.00252    2.00000
   44    -27.00243    2.00000
   45    -27.00243    2.00000
   46    -27.00200    2.00000
   47    -27.00200    2.00000
   48    -27.00200    2.00000
   49    -27.00200    2.00000
   50    -27.00186    2.00000
   51    -27.00186    2.00000
   52    -27.00179    2.00000
   53    -27.00179    2.00000
   54    -26.96302    2.00000
   55    -26.96294    2.00000
   56    -26.96263    2.00000
   57    -26.96252    2.00000
   58    -26.96234    2.00000
   59    -26.96208    2.00000
   60    -26.95863    2.00000
   61    -26.95863    2.00000
   62    -26.95854    2.00000
   63    -26.95854    2.00000
   64    -26.95827    2.00000
   65    -26.95827    2.00000
   66    -26.95815    2.00000
   67    -26.95815    2.00000
   68    -26.95746    2.00000
   69    -26.95746    2.00000
   70    -26.95732    2.00000
   71    -26.95732    2.00000
   72    -26.93170    2.00000
   73    -26.93170    2.00000
   74    -26.93163    2.00000
   75    -26.93163    2.00000
   76    -26.93149    2.00000
   77    -26.93149    2.00000
   78    -26.93140    2.00000
   79    -26.93139    2.00000
   80    -26.93138    2.00000
   81    -26.93138    2.00000
   82    -26.93130    2.00000
   83    -26.93130    2.00000
   84    -26.88802    2.00000
   85    -26.88795    2.00000
   86    -26.88778    2.00000
   87    -26.88771    2.00000
   88    -26.88769    2.00000
   89    -26.88761    2.00000
   90    -26.34153    2.00000
   91    -26.34015    2.00000
   92    -26.33981    2.00000
   93    -26.33542    2.00000
   94    -26.33542    2.00000
   95    -26.33271    2.00000
   96    -26.33265    2.00000
   97    -26.33265    2.00000
   98    -26.33249    2.00000
   99    -26.33231    2.00000
  100    -26.33231    2.00000
  101    -26.32702    2.00000
  102    -26.32702    2.00000
  103    -26.32584    2.00000
  104    -26.32584    2.00000
  105    -26.32550    2.00000
  106    -26.32550    2.00000
  107    -26.31980    2.00000
  108    -26.30302    2.00000
  109    -26.30302    2.00000
  110    -26.30283    2.00000
  111    -26.30283    2.00000
  112    -26.29531    2.00000
  113    -26.29345    2.00000
  114    -26.29345    2.00000
  115    -26.29318    2.00000
  116    -26.29318    2.00000
  117    -26.29001    2.00000
  118    -26.29001    2.00000
  119    -26.28220    2.00000
  120    -26.28220    2.00000
  121    -26.27824    2.00000
  122    -26.27824    2.00000
  123    -26.27507    2.00000
  124    -26.27481    2.00000
  125    -26.26028    2.00000
  126    -26.26028    2.00000
  127    -26.26011    2.00000
  128    -26.26011    2.00000
  129    -26.25674    2.00000
  130    -26.25182    2.00000
  131    -26.25179    2.00000
  132    -26.25143    2.00000
  133    -26.25139    2.00000
  134    -26.25138    2.00000
  135    -26.25138    2.00000
  136    -26.25004    2.00000
  137    -26.25004    2.00000
  138    -26.24976    2.00000
  139    -26.24976    2.00000
  140    -26.24171    2.00000
  141    -26.24137    2.00000
  142    -26.24097    2.00000
  143    -26.23583    2.00000
  144     -6.43068    2.00000
  145     -5.85259    2.00000
  146     -5.85249    2.00000
  147     -5.34898    2.00000
  148     -5.28510    2.00000
  149     -5.28510    2.00000
  150     -4.87155    2.00000
  151     -4.87144    2.00000
  152     -4.77680    2.00000
  153     -4.77680    2.00000
  154     -4.77666    2.00000
  155     -4.77666    2.00000
  156     -4.28013    2.00000
  157     -4.27980    2.00000
  158     -4.27691    2.00000
  159     -4.27691    2.00000
  160     -3.92934    2.00000
  161     -3.83041    2.00000
  162     -3.83041    2.00000
  163     -3.83026    2.00000
  164     -3.83026    2.00000
  165     -3.81463    2.00000
  166     -3.81434    2.00000
  167     -3.42604    2.00000
  168     -3.42604    2.00000
  169     -3.42561    2.00000
  170     -3.42561    2.00000
  171     -3.09351    2.00000
  172     -3.09351    2.00000
  173     -2.96373    2.00000
  174     -2.89745    2.00000
  175     -2.89745    2.00000
  176     -2.75911    2.00000
  177     -2.75911    2.00000
  178     -2.75883    2.00000
  179     -2.75883    2.00000

Fermi level: inf

Writing to output.gpw (mode='')


Forces in eV/Ang:
  0 Ca    0.00707    0.00000    0.12557
  1 Ca    0.00000    0.00000    0.15227
  2 Ca   -0.00707    0.00000    0.12557
  3 Ca    0.00707    0.00000    0.12557
  4 Ca    0.00000    0.00000    0.15227
  5 Ca   -0.00707    0.00000    0.12557
  6 Ca    0.00707   -0.00000    0.12557
  7 Ca    0.00000   -0.00000    0.15227
  8 Ca   -0.00707   -0.00000    0.12557
  9 Ca    0.00000    0.00000    0.09999
 10 Ca    0.00420    0.00000    0.09278
 11 Ca   -0.00420    0.00000    0.09278
 12 Ca    0.00000    0.00000    0.09999
 13 Ca    0.00420    0.00000    0.09277
 14 Ca   -0.00420    0.00000    0.09277
 15 Ca    0.00000   -0.00000    0.09999
 16 Ca    0.00420   -0.00000    0.09277
 17 Ca   -0.00420   -0.00000    0.09277
 18 Ca   -0.00415    0.00000   -0.09259
 19 Ca   -0.00000    0.00000   -0.09983
 20 Ca    0.00415    0.00000   -0.09259
 21 Ca   -0.00415    0.00000   -0.09259
 22 Ca    0.00000    0.00000   -0.09983
 23 Ca    0.00415    0.00000   -0.09259
 24 Ca   -0.00415   -0.00000   -0.09259
 25 Ca    0.00000   -0.00000   -0.09983
 26 Ca    0.00415   -0.00000   -0.09259
 27 Ca    0.00000    0.00000   -0.15213
 28 Ca   -0.00705    0.00000   -0.12545
 29 Ca    0.00705    0.00000   -0.12545
 30 Ca    0.00000    0.00000   -0.15213
 31 Ca   -0.00705    0.00000   -0.12545
 32 Ca    0.00705    0.00000   -0.12545
 33 Ca    0.00000   -0.00000   -0.15213
 34 Ca   -0.00705   -0.00000   -0.12545
 35 Ca    0.00705   -0.00000   -0.12545

System changes: positions 

Initializing position-dependent things.

Density initialized from wave functions
        .----------------------------------------.  
       /|                                        |  
      / |                                        |  
     /  |                                        |  
    /   |                                        |  
   /    |                                        |  
  /     |                                        |  
 *      |                                        |  
 |      |                                        |  
 |      |                                        |  
 |      |                                        |  
 |      |                                        |  
 |      |                                        |  
 |      |                                        |  
 |      |                                        |  
 |    Ca|          Ca            Ca              |  
 |      |     Ca           Ca            Ca      |  
 | Ca   |        Ca            Ca                |  
 |      |  Ca            Ca            Ca        |  
 Ca     |      Ca           Ca                   |  
 |    Ca|          Ca            Ca              |  
 |      |Ca   Ca       Ca  Ca       Ca   Ca      |  
 | Ca   |        Ca            Ca                |  
 |      |  Ca            Ca            Ca        |  
 Ca     |      Ca           Ca                   |  
 |      |Ca            Ca           Ca           |  
 |      |                                        |  
 |      |                                        |  
 |      |                                        |  
 |      |                                        |  
 |      |                                        |  
 |      |                                        |  
 |      .----------------------------------------.  
 |     /                                        /   
 |    /                                        /    
 |   /                                        /     
 |  /                                        /      
 | /                                        /       
 |/                                        /        
 *----------------------------------------*         

Positions:
   0 Ca     2.790101    1.972828   10.001794    ( 0.0000,  0.0000,  0.0000)
   1 Ca     8.370000    1.972828   10.002175    ( 0.0000,  0.0000,  0.0000)
   2 Ca    13.949899    1.972828   10.001794    ( 0.0000,  0.0000,  0.0000)
   3 Ca     2.790101    5.918484   10.001794    ( 0.0000,  0.0000,  0.0000)
   4 Ca     8.370000    5.918484   10.002175    ( 0.0000,  0.0000,  0.0000)
   5 Ca    13.949899    5.918484   10.001794    ( 0.0000,  0.0000,  0.0000)
   6 Ca     2.790101    9.864140   10.001794    ( 0.0000,  0.0000,  0.0000)
   7 Ca     8.370000    9.864140   10.002175    ( 0.0000,  0.0000,  0.0000)
   8 Ca    13.949899    9.864140   10.001794    ( 0.0000,  0.0000,  0.0000)
   9 Ca     0.000000    0.000000   11.974256    ( 0.0000,  0.0000,  0.0000)
  10 Ca     5.580060    0.000000   11.974153    ( 0.0000,  0.0000,  0.0000)
  11 Ca    11.159940    0.000000   11.974153    ( 0.0000,  0.0000,  0.0000)
  12 Ca     0.000000    3.945656   11.974256    ( 0.0000,  0.0000,  0.0000)
  13 Ca     5.580060    3.945656   11.974153    ( 0.0000,  0.0000,  0.0000)
  14 Ca    11.159940    3.945656   11.974153    ( 0.0000,  0.0000,  0.0000)
  15 Ca     0.000000    7.891312   11.974256    ( 0.0000,  0.0000,  0.0000)
  16 Ca     5.580060    7.891312   11.974153    ( 0.0000,  0.0000,  0.0000)
  17 Ca    11.159940    7.891312   11.974153    ( 0.0000,  0.0000,  0.0000)
  18 Ca     2.789941    1.972828   13.944333    ( 0.0000,  0.0000,  0.0000)
  19 Ca     8.370000    1.972828   13.944230    ( 0.0000,  0.0000,  0.0000)
  20 Ca    13.950059    1.972828   13.944333    ( 0.0000,  0.0000,  0.0000)
  21 Ca     2.789941    5.918484   13.944333    ( 0.0000,  0.0000,  0.0000)
  22 Ca     8.370000    5.918484   13.944230    ( 0.0000,  0.0000,  0.0000)
  23 Ca    13.950059    5.918484   13.944333    ( 0.0000,  0.0000,  0.0000)
  24 Ca     2.789941    9.864140   13.944333    ( 0.0000,  0.0000,  0.0000)
  25 Ca     8.370000    9.864140   13.944230    ( 0.0000,  0.0000,  0.0000)
  26 Ca    13.950059    9.864140   13.944333    ( 0.0000,  0.0000,  0.0000)
  27 Ca     0.000000    0.000000   15.916310    ( 0.0000,  0.0000,  0.0000)
  28 Ca     5.579899    0.000000   15.916692    ( 0.0000,  0.0000,  0.0000)
  29 Ca    11.160101    0.000000   15.916692    ( 0.0000,  0.0000,  0.0000)
  30 Ca     0.000000    3.945656   15.916310    ( 0.0000,  0.0000,  0.0000)
  31 Ca     5.579899    3.945656   15.916692    ( 0.0000,  0.0000,  0.0000)
  32 Ca    11.160101    3.945656   15.916692    ( 0.0000,  0.0000,  0.0000)
  33 Ca     0.000000    7.891312   15.916310    ( 0.0000,  0.0000,  0.0000)
  34 Ca     5.579899    7.891312   15.916692    ( 0.0000,  0.0000,  0.0000)
  35 Ca    11.160101    7.891312   15.916692    ( 0.0000,  0.0000,  0.0000)

Unit cell:
           periodic     x           y           z      points  spacing
  1. axis:    yes   16.740000    0.000000    0.000000   104     0.1610
  2. axis:    yes    0.000000   11.836968    0.000000    72     0.1644
  3. axis:    no     0.000000    0.000000   25.918484   160     0.1620

  Lengths:  16.740000  11.836968  25.918484
  Angles:   90.000000  90.000000  90.000000

Effective grid spacing dv^(1/3) = 0.1624

     iter     time        total  log10-change:
                         energy  eigst   dens
iter:   1 03:31:45 -1581.026118  -3.56
iter:   2 03:32:49 -1581.026272  -4.14  -3.92
iter:   3 03:33:52 -1581.026348c -4.49  -3.75
iter:   4 03:34:56 -1581.026261c -4.84  -3.65
Writing to output.gpw (mode='')

iter:   5 03:36:00 -1581.026213c -4.92  -3.68
iter:   6 03:37:03 -1581.026237c -4.71  -4.01c
iter:   7 03:38:06 -1581.026244c -5.34  -3.95
iter:   8 03:39:09 -1581.026226c -4.95  -3.90
iter:   9 03:40:13 -1581.026253c -4.55  -3.87
Writing to output.gpw (mode='')

iter:  10 03:41:17 -1581.026311c -5.17  -3.83
iter:  11 03:42:20 -1581.026399c -4.72  -3.74
iter:  12 03:43:23 -1581.026602c -4.20  -3.71
iter:  13 03:44:27 -1581.026532c -4.36  -3.63
iter:  14 03:45:30 -1581.026623c -4.74  -3.60
Writing to output.gpw (mode='')

iter:  15 03:46:34 -1581.027697c -4.12  -3.50
iter:  16 03:47:37 -1581.026751c -4.46  -3.25
iter:  17 03:48:41 -1581.026570c -4.78  -3.28
iter:  18 03:49:44 -1581.026414c -4.95  -3.29
iter:  19 03:50:47 -1581.026236c -5.07  -3.31
Writing to output.gpw (mode='')

iter:  20 03:51:51 -1581.025703c -4.55  -3.34
iter:  21 03:52:54 -1581.025578c -3.62  -3.49
iter:  22 03:53:58 -1581.026165c -3.49  -3.80
iter:  23 03:55:01 -1581.026210c -3.98  -3.98
iter:  24 03:56:04 -1581.026165c -4.82  -4.09c
Writing to output.gpw (mode='')

iter:  25 03:57:08 -1581.026165c -5.14  -4.30c
iter:  26 03:58:11 -1581.026169c -5.68  -4.31c
iter:  27 03:59:15 -1581.026174c -5.50  -4.27c
iter:  28 04:00:18 -1581.026173c -5.81  -4.25c
iter:  29 04:01:21 -1581.026176c -5.82  -4.24c
Writing to output.gpw (mode='')

iter:  30 04:02:25 -1581.026172c -5.94  -4.24c
iter:  31 04:03:29 -1581.026167c -5.84  -4.28c
iter:  32 04:04:32 -1581.026220c -5.16  -4.33c
iter:  33 04:05:35 -1581.026160c -5.28  -4.11c
iter:  34 04:06:38 -1581.026167c -5.47  -4.41c
Writing to output.gpw (mode='')

iter:  35 04:07:43 -1581.026182c -5.68  -4.44c
iter:  36 04:08:46 -1581.026184c -6.01  -4.32c
iter:  37 04:09:50 -1581.026208c -5.75  -4.27c
iter:  38 04:10:53 -1581.026209c -5.75  -4.04c
iter:  39 04:11:56 -1581.026214c -6.10  -4.01c
Writing to output.gpw (mode='')

iter:  40 04:13:00 -1581.026198c -6.07  -3.99
iter:  41 04:14:04 -1581.026194c -6.21  -3.97
iter:  42 04:15:07 -1581.026185c -5.94  -4.00c
iter:  43 04:16:10 -1581.026168c -5.77  -4.11c
iter:  44 04:17:13 -1581.026167c -5.69  -4.15c
Writing to output.gpw (mode='')

iter:  45 04:18:18 -1581.026171c -5.32  -4.16c
iter:  46 04:19:21 -1581.026179c -5.19  -4.29c
iter:  47 04:20:24 -1581.026181c -5.63  -4.35c
iter:  48 04:21:27 -1581.026182c -5.71  -4.32c
iter:  49 04:22:31 -1581.026179c -5.94  -4.30c
Writing to output.gpw (mode='')

iter:  50 04:23:35 -1581.026178c -6.39  -4.30c
iter:  51 04:24:38 -1581.026235c -5.63  -4.29c
iter:  52 04:25:41 -1581.026191c -5.59  -3.96
iter:  53 04:26:44 -1581.026248c -5.65  -4.02c
iter:  54 04:27:48 -1581.026256c -5.08  -3.90
Writing to output.gpw (mode='')

iter:  55 04:28:52 -1581.026213c -5.18  -3.90
iter:  56 04:29:55 -1581.026196c -4.97  -3.92
iter:  57 04:30:58 -1581.026202c -4.89  -4.24c
iter:  58 04:32:01 -1581.026173c -5.26  -4.20c
iter:  59 04:33:05 -1581.026166c -5.38  -4.31c
Writing to output.gpw (mode='')

iter:  60 04:34:09 -1581.026173c -5.32  -4.68c
iter:  61 04:35:12 -1581.026173c -6.02  -4.65c
iter:  62 04:36:16 -1581.026173c -6.33  -4.63c
iter:  63 04:37:19 -1581.026173c -6.50  -4.61c
iter:  64 04:38:22 -1581.026196c -5.83  -4.58c
Writing to output.gpw (mode='')

iter:  65 04:39:26 -1581.026199c -5.59  -4.22c
iter:  66 04:40:30 -1581.026189c -6.07  -4.17c
iter:  67 04:41:33 -1581.026169c -6.27  -4.16c
iter:  68 04:42:36 -1581.026173c -6.20  -4.26c
iter:  69 04:43:40 -1581.026191c -6.46  -4.28c
Writing to output.gpw (mode='')

iter:  70 04:44:44 -1581.026209c -5.86  -4.19c
iter:  71 04:45:47 -1581.026165c -5.17  -4.07c
iter:  72 04:46:51 -1581.026173c -5.24  -4.34c
iter:  73 04:47:54 -1581.026175c -6.06  -4.37c
iter:  74 04:48:57 -1581.026169c -6.27  -4.40c
Writing to output.gpw (mode='')

iter:  75 04:50:03 -1581.026170c -5.93  -4.52c
iter:  76 04:51:06 -1581.026170c -5.99  -4.57c
iter:  77 04:52:09 -1581.026172c -6.43  -4.64c
iter:  78 04:53:12 -1581.026173c -6.73  -4.69c
iter:  79 04:54:16 -1581.026182c -6.02  -4.68c
Writing to output.gpw (mode='')

iter:  80 04:55:20 -1581.026183c -5.79  -4.45c
iter:  81 04:56:23 -1581.026172c -6.51  -4.40c
iter:  82 04:57:26 -1581.026182c -6.37  -4.47c
iter:  83 04:58:30 -1581.026193c -6.01  -4.37c
iter:  84 04:59:33 -1581.026207c -5.64  -4.26c
Writing to output.gpw (mode='')

iter:  85 05:00:37 -1581.026203c -5.63  -4.16c
iter:  86 05:01:41 -1581.026213c -5.96  -4.12c
iter:  87 05:02:44 -1581.026169c -5.91  -4.05c
iter:  88 05:03:47 -1581.026201c -6.36  -4.13c
iter:  89 05:04:51 -1581.026180c -5.31  -4.07c
Writing to output.gpw (mode='')

iter:  90 05:05:55 -1581.026219c -4.94  -4.22c
iter:  91 05:06:58 -1581.026206c -4.88  -4.14c
iter:  92 05:08:02 -1581.026163c -5.39  -4.12c
iter:  93 05:09:05 -1581.026168c -5.50  -4.43c
iter:  94 05:10:08 -1581.026173c -5.72  -4.55c
Writing to output.gpw (mode='')

iter:  95 05:11:12 -1581.026175c -5.72  -4.67c
iter:  96 05:12:16 -1581.026178c -5.84  -4.67c
iter:  97 05:13:19 -1581.026180c -5.83  -4.63c
iter:  98 05:14:22 -1581.026186c -5.97  -4.57c
iter:  99 05:15:25 -1581.026188c -5.85  -4.43c
Writing to output.gpw (mode='')

iter: 100 05:16:30 -1581.026191c -6.04  -4.36c
iter: 101 05:17:33 -1581.026196c -6.07  -4.30c
iter: 102 05:18:36 -1581.026183c -6.44  -4.23c
iter: 103 05:19:39 -1581.026184c -6.58  -4.26c
iter: 104 05:20:43 -1581.026184c -6.60  -4.27c
Writing to output.gpw (mode='')

iter: 105 05:21:47 -1581.026183c -5.90  -4.27c
iter: 106 05:22:50 -1581.026198c -5.36  -4.41c
iter: 107 05:23:54 -1581.026196c -5.58  -4.44c
iter: 108 05:24:57 -1581.026199c -5.63  -4.50c
iter: 109 05:26:00 -1581.026203c -5.90  -4.56c
Writing to output.gpw (mode='')

iter: 110 05:27:05 -1581.026211c -5.93  -4.51c
iter: 111 05:28:08 -1581.026215c -5.71  -4.42c
iter: 112 05:29:11 -1581.026215c -6.09  -4.38c
iter: 113 05:30:14 -1581.026328c -4.78  -4.38c
iter: 114 05:31:17 -1581.026407c -5.02  -3.93
Writing to output.gpw (mode='')

iter: 115 05:32:22 -1581.026486c -4.87  -3.83
iter: 116 05:33:25 -1581.026406c -5.17  -3.75
iter: 117 05:34:28 -1581.026394c -5.05  -3.75
iter: 118 05:35:32 -1581.026784c -4.80  -3.76
iter: 119 05:36:35 -1581.026385c -4.43  -3.54
Writing to output.gpw (mode='')

iter: 120 05:37:40 -1581.026612c -4.80  -3.65
iter: 121 05:38:43 -1581.026580c -4.41  -3.64
iter: 122 05:39:47 -1581.026723c -4.63  -3.95
iter: 123 05:40:50 -1581.031260c -3.03  -3.95
iter: 124 05:41:53 -1581.031331c -3.65  -3.15
Writing to output.gpw (mode='')

iter: 125 05:42:57 -1581.030177c -3.67  -3.13
iter: 126 05:44:01 -1581.031120c -4.20  -3.15
iter: 127 05:45:04 -1581.031426c -4.03  -3.15
iter: 128 05:46:07 -1581.037445c -2.65  -3.15
iter: 129 05:47:10 -1581.054820c -2.62  -3.26
Writing to output.gpw (mode='')

iter: 130 05:48:15 -1581.050405c -2.74  -2.96
iter: 131 05:49:18 -1581.055937c -3.16  -2.97
iter: 132 05:50:21 -1581.065522c -2.96  -2.91
iter: 133 05:51:25 -1581.080567c -2.06  -2.80
iter: 134 05:52:28 -1581.107607c -2.15  -2.91
Writing to output.gpw (mode='')

iter: 135 05:53:33 -1581.110476c -2.42  -2.82
iter: 136 05:54:36 -1581.201423c -2.14  -2.79
iter: 137 05:55:39 -1581.219243c -1.96  -2.47
iter: 138 05:56:42 -1581.333914c -2.01  -2.42
iter: 139 05:57:46 -1581.428394  -1.49  -2.28
Writing to output.gpw (mode='')

iter: 140 05:58:50 -1581.109294  -1.94  -2.20
iter: 141 05:59:53 -1581.595238  -1.73  -2.31
iter: 142 06:00:57 -1581.514359  -1.53  -2.11
iter: 143 06:02:00 -1581.326956  -2.22  -2.08
iter: 144 06:03:03 -1581.403035  -1.15  -2.10
Writing to output.gpw (mode='')

iter: 145 06:04:07 -1581.315877c -1.53  -2.25
iter: 146 06:05:11 -1581.459197c -1.37  -2.26
iter: 147 06:06:14 -1581.310066c -1.22  -2.23
iter: 148 06:12:15 -1581.343970c -2.11  -2.31
iter: 149 06:18:28 -1584.672811  -0.48  -2.30
Writing to output.gpw (mode='')

iter: 150 06:24:50 -1582.566328  -0.98  -1.58
iter: 151 06:31:11 -1580.009542  -1.04  -1.59
iter: 152 06:37:42 -1581.173994  -0.99  -1.78
iter: 153 06:44:14 -1581.834303  -2.11  -1.81
iter: 154 06:50:44 -1581.869581  -1.91  -1.80
Writing to output.gpw (mode='')

iter: 155 06:57:09 -1580.974536  -0.93  -1.80
iter: 156 07:03:30 -1581.240985  -0.90  -2.08
iter: 157 07:09:43 -1582.364181  -0.94  -2.12
iter: 158 07:16:13 -1582.027988  -0.88  -1.99
iter: 159 07:22:35 -1581.305151  -1.52  -1.97
Writing to output.gpw (mode='')

iter: 160 07:28:51 -1581.645574  -1.71  -2.07
iter: 161 07:35:03 -1581.389977  -1.44  -2.06
iter: 162 07:41:19 -1581.669512  -1.08  -2.24
iter: 163 07:48:01 -1581.456985  -1.16  -2.19
iter: 164 07:54:34 -1581.465725  -1.71  -2.23
Writing to output.gpw (mode='')

iter: 165 08:01:06 -1581.485166c -1.95  -2.24
iter: 166 08:07:28 -1581.693816  -1.35  -2.26
iter: 167 08:13:51 -1581.546333  -1.68  -2.20
iter: 168 08:20:15 -1581.738950  -1.23  -2.21
iter: 169 08:26:36 -1581.575276  -1.66  -2.17
Writing to output.gpw (mode='')

iter: 170 08:32:42 -1582.925347  -0.77  -2.20
iter: 171 08:39:04 -1583.223044  -0.74  -1.86
iter: 172 08:45:18 -1583.399501  -1.10  -1.81
iter: 173 08:51:34 -1582.853417  -1.04  -1.76
iter: 174 08:57:43 -1581.060756  -1.26  -1.74
Writing to output.gpw (mode='')

iter: 175 09:03:51 -1581.298148  -1.08  -1.99
iter: 176 09:10:13 -1581.380402  -1.55  -2.03
iter: 177 09:16:34 -1581.745394  -1.44  -2.10
iter: 178 09:22:35 -1581.746388  -1.26  -2.07
iter: 179 09:28:42 -1581.831315c -1.07  -2.13
Writing to output.gpw (mode='')

iter: 180 09:35:01 -1582.269644  -1.20  -2.12
iter: 181 09:41:04 -1582.364828  -0.74  -2.06
iter: 182 09:47:08 -1582.286902c -1.27  -2.01
iter: 183 09:53:10 -1583.170330  -1.19  -1.97
iter: 184 09:59:20 -1582.300079  -1.16  -1.84
Writing to output.gpw (mode='')

iter: 185 10:05:25 -1583.238255  -1.43  -1.84
iter: 186 10:11:33 -1581.185389  -0.86  -1.75
iter: 187 10:18:06 -1581.619234  -0.96  -1.90
iter: 188 10:24:37 -1582.128730  -1.04  -1.91
iter: 189 10:31:07 -1582.408252  -1.32  -1.90
Writing to output.gpw (mode='')

iter: 190 10:37:34 -1585.537066  -0.38  -1.89
iter: 191 10:44:05 -1583.459673  -0.63  -1.66
iter: 192 10:50:24 -1584.486239  -1.08  -1.67
iter: 193 10:57:02 -1580.598958  -0.58  -1.62
iter: 194 11:03:15 -1581.376959  -0.32  -1.96
Writing to output.gpw (mode='')

iter: 195 11:09:46 -1582.201527  -1.23  -2.01
iter: 196 11:16:00 -1581.927529  -1.56  -1.98
iter: 197 11:22:33 -1581.860539  -1.36  -2.00
iter: 198 11:29:02 -1581.893041c -1.27  -2.03
iter: 199 11:35:25 -1581.963303c -1.26  -2.05
Writing to output.gpw (mode='')

iter: 200 11:41:44 -1581.963974c -1.33  -2.09
iter: 201 11:48:12 -1582.172367  -1.45  -2.15
iter: 202 11:54:48 -1581.951697  -1.56  -2.13
iter: 203 12:01:01 -1581.944006  -1.86  -2.17
iter: 204 12:07:09 -1582.033373c -1.31  -2.20
Writing to output.gpw (mode='')

iter: 205 12:13:35 -1582.107605c -1.10  -2.21
iter: 206 12:19:53 -1582.031657c -1.83  -2.19
iter: 207 12:26:10 -1582.088402c -2.07  -2.19
iter: 208 12:32:36 -1582.572519  -1.37  -2.17
iter: 209 12:38:59 -1582.619613  -1.11  -1.99
Writing to output.gpw (mode='')

iter: 210 12:45:27 -1582.406985  -1.60  -1.95
iter: 211 12:52:08 -1582.233675  -1.06  -1.94
iter: 212 12:58:39 -1582.259740c -0.79  -2.06
iter: 213 13:04:59 -1582.289453c -0.75  -2.08
iter: 214 13:11:23 -1581.964004  -1.39  -2.06
Writing to output.gpw (mode='')

iter: 215 13:17:32 -1587.979989  -0.29  -2.10
iter: 216 13:23:48 -1579.229794  -0.36  -1.50
iter: 217 13:29:58 -1579.728652  -0.33  -1.63
iter: 218 13:36:19 -1581.202647  -0.67  -1.70
iter: 219 13:42:42 -1581.675930  -1.33  -1.74
Writing to output.gpw (mode='')

iter: 220 13:49:03 -1581.123655  -1.18  -1.77
iter: 221 13:55:08 -1582.054020  -1.44  -1.88
iter: 222 14:01:15 -1582.843085  -1.80  -1.87
iter: 223 14:07:26 -1582.963274  -0.57  -1.79
iter: 224 14:13:46 -1584.315397  -0.22  -1.88
Writing to output.gpw (mode='')

iter: 225 14:20:01 -1584.250089  -0.34  -1.81
iter: 226 14:26:19 -1581.620296  -0.96  -1.75
iter: 227 14:32:48 -1581.553574  -0.81  -1.87
iter: 228 14:39:15 -1582.453969  -0.21  -2.09
iter: 229 14:45:53 -1582.662179  -0.53  -2.05
Writing to output.gpw (mode='')

iter: 230 14:52:35 -1582.168914  -1.30  -2.00
iter: 231 14:58:38 -1581.941421  -1.54  -2.02
iter: 232 15:05:02 -1582.010924  -1.96  -2.15
iter: 233 15:11:16 -1582.532770  -1.45  -2.15
iter: 234 15:17:35 -1581.898315  -0.88  -1.98
Writing to output.gpw (mode='')

iter: 235 15:23:56 -1582.077424  -0.77  -2.25
iter: 236 15:30:30 -1582.003140c -1.76  -2.24
iter: 237 15:36:51 -1581.980226c -2.30  -2.25
iter: 238 15:43:15 -1582.012024c -2.35  -2.26
iter: 239 15:49:23 -1581.998341c -1.85  -2.26
Writing to output.gpw (mode='')

iter: 240 15:55:49 -1582.085581c -1.81  -2.28
iter: 241 16:02:07 -1581.991478c -2.19  -2.25
iter: 242 16:08:33 -1582.779666  -1.03  -2.31
iter: 243 16:14:59 -1582.584944  -1.19  -1.95
iter: 244 16:21:29 -1582.794594  -1.50  -1.94
Writing to output.gpw (mode='')

iter: 245 16:27:59 -1582.636719  -1.37  -1.88
iter: 246 16:34:24 -1583.574759  -0.71  -1.87
iter: 247 16:40:34 -1581.406803  -0.34  -1.79
iter: 248 16:46:57 -1582.633837  -0.12  -2.14
iter: 249 16:53:04 -1585.571606  -0.44  -2.06
Writing to output.gpw (mode='')

iter: 250 16:59:24 -1584.477336  -0.13  -1.77
iter: 251 17:05:58 -1581.929223  -0.38  -1.73
iter: 252 17:12:18 -1582.169778  -1.09  -1.88
iter: 253 17:18:32 -1582.047705  -1.83  -1.91
iter: 254 17:24:49 -1582.750395  -0.77  -1.95
Writing to output.gpw (mode='')

iter: 255 17:31:14 -1582.312538  -1.07  -2.04
iter: 256 17:37:41 -1584.175926  -1.00  -2.04
iter: 257 17:43:55 -1583.553360  -0.77  -1.75
iter: 258 17:50:10 -1583.526881  -1.22  -1.73
iter: 259 17:56:31 -1581.660134  -0.94  -1.71
Writing to output.gpw (mode='')

iter: 260 18:02:54 -1581.544706  -0.87  -1.92
iter: 261 18:09:17 -1582.599945  -1.39  -2.04
iter: 262 18:15:36 -1582.084958  -0.69  -1.93
iter: 263 18:21:33 -1582.689139  -0.42  -2.16
iter: 264 18:27:48 -1582.082491  -1.15  -2.07
Writing to output.gpw (mode='')

iter: 265 18:34:10 -1582.081762  -1.83  -2.17
iter: 266 18:40:30 -1581.940691c -1.33  -2.21
iter: 267 18:46:46 -1582.096031c -1.32  -2.30
iter: 268 18:53:12 -1582.158761  -1.16  -2.38
iter: 269 18:59:32 -1582.065992c -2.05  -2.32
Writing to output.gpw (mode='')

iter: 270 19:05:42 -1582.390146  -1.73  -2.31
iter: 271 19:12:03 -1582.272491  -1.32  -2.06
iter: 272 19:18:39 -1582.325026c -1.17  -2.06
iter: 273 19:24:37 -1582.183865c -1.77  -2.04
iter: 274 19:31:03 -1581.919488  -1.85  -2.05
Writing to output.gpw (mode='')

iter: 275 19:35:13 -1581.865230  -1.48  -2.24
iter: 276 19:41:13 -1582.001660c -1.60  -2.32
iter: 277 19:47:50 -1581.922986c -1.38  -2.29
iter: 278 19:54:04 -1581.969064c -1.86  -2.40
iter: 279 19:59:59 -1582.069761c -1.93  -2.43
Writing to output.gpw (mode='')

iter: 280 20:06:19 -1582.103685c -1.89  -2.38
iter: 281 20:12:29 -1581.964194c -2.27  -2.33
iter: 282 20:18:38 -1581.962652c -2.44  -2.40
iter: 283 20:24:38 -1582.029885c -1.67  -2.46
iter: 284 20:30:56 -1582.395064  -1.88  -2.44
Writing to output.gpw (mode='')

iter: 285 20:37:21 -1582.385223  -1.25  -2.11
iter: 286 20:43:35 -1582.315348c -1.83  -2.07
iter: 287 20:49:47 -1582.328899c -1.78  -2.04
iter: 288 20:56:06 -1581.877558  -1.61  -2.01
iter: 289 21:02:29 -1581.917799  -1.32  -2.12
Writing to output.gpw (mode='')

iter: 290 21:08:50 -1582.183760  -0.81  -2.42
iter: 291 21:15:02 -1582.122509  -1.07  -2.33
iter: 292 21:21:27 -1582.031359c -1.38  -2.32
iter: 293 21:27:47 -1582.005852c -2.00  -2.36
iter: 294 21:34:29 -1582.040558c -1.90  -2.39
Writing to output.gpw (mode='')

iter: 295 21:40:35 -1582.079605c -1.60  -2.40
iter: 296 21:47:00 -1582.276193  -1.55  -2.36
iter: 297 21:53:15 -1582.165075  -1.64  -2.20
iter: 298 21:59:30 -1581.911408  -1.83  -2.20
iter: 299 22:05:42 -1581.937108  -1.60  -2.52
Writing to output.gpw (mode='')

iter: 300 22:12:20 -1581.973119c -1.80  -2.57
iter: 301 22:18:45 -1582.131885  -1.40  -2.60
iter: 302 22:25:15 -1582.017429c -1.87  -2.42
iter: 303 22:31:23 -1581.960570c -2.37  -2.47
iter: 304 22:37:57 -1581.980242c -2.19  -2.65
Writing to output.gpw (mode='')

iter: 305 22:44:23 -1581.994105c -2.33  -2.66
iter: 306 22:50:36 -1582.006934c -1.92  -2.67
iter: 307 22:56:52 -1581.980431c -2.05  -2.63
iter: 308 23:03:04 -1582.085174c -1.78  -2.74
iter: 309 23:09:25 -1582.088873c -1.43  -2.52
Writing to output.gpw (mode='')

iter: 310 23:16:05 -1582.032411c -2.34  -2.48
iter: 311 23:22:33 -1582.519482  -1.46  -2.45
iter: 312 23:28:55 -1582.530720  -1.53  -2.00
iter: 313 23:35:24 -1582.831346  -1.59  -1.97
iter: 314 23:41:43 -1582.862370  -1.22  -1.89
Writing to output.gpw (mode='')

iter: 315 23:48:06 -1582.384379  -1.36  -1.85
iter: 316 23:54:41 -1581.761991  -1.48  -1.87
iter: 317 00:01:24 -1582.532586  -0.75  -1.97
iter: 318 00:07:38 -1583.435417  -0.23  -2.07
iter: 319 00:14:14 -1582.041017  -0.77  -1.93
Writing to output.gpw (mode='')

iter: 320 00:20:39 -1581.782063  -1.08  -2.03
iter: 321 00:26:46 -1581.871119  -1.29  -2.22
iter: 322 00:32:51 -1582.091617  -1.66  -2.30
iter: 323 00:39:00 -1582.101304  -1.16  -2.30
iter: 324 00:45:16 -1582.097328c -1.40  -2.28
Writing to output.gpw (mode='')

iter: 325 00:51:49 -1582.105326c -1.39  -2.30
iter: 326 00:58:10 -1581.887136  -1.92  -2.27
iter: 327 01:04:35 -1581.920430  -1.55  -2.48
iter: 328 01:10:46 -1582.010805c -1.49  -2.64
iter: 329 01:17:30 -1582.123897  -1.81  -2.56
Writing to output.gpw (mode='')

iter: 330 01:24:00 -1582.107056c -1.47  -2.39
iter: 331 01:30:30 -1582.125212c -1.77  -2.35
iter: 332 01:36:45 -1582.001634c -2.22  -2.32
iter: 333 01:43:00 -1581.954794c -2.23  -2.38
iter: 334 01:49:19 -1581.960933c -2.02  -2.59
Writing to output.gpw (mode='')

iter: 335 01:55:42 -1581.975449c -2.17  -2.66
iter: 336 02:01:55 -1581.994056c -1.72  -2.91
iter: 337 02:08:12 -1581.982396c -2.59  -2.86
iter: 338 02:14:24 -1581.980737c -3.17  -2.91
iter: 339 02:20:33 -1581.980992c -3.12  -2.95
Writing to output.gpw (mode='')

iter: 340 02:26:44 -1582.009775c -2.71  -2.97
iter: 341 02:33:12 -1582.014972c -2.35  -2.71
iter: 342 02:39:30 -1582.087764c -2.31  -2.65
iter: 343 02:45:38 -1582.056821c -2.18  -2.41
iter: 344 02:51:54 -1582.029346c -2.82  -2.39
Writing to output.gpw (mode='')

iter: 345 02:58:10 -1582.002739c -2.97  -2.40
iter: 346 03:04:14 -1581.965308c -2.90  -2.42
iter: 347 03:10:34 -1581.993339c -2.51  -2.51
iter: 348 03:16:23 -1582.002225c -2.07  -2.49
iter: 349 03:22:44 -1582.002968c -1.88  -2.68
Writing to output.gpw (mode='')

iter: 350 03:29:16 -1581.996449c -1.82  -2.67
iter: 351 03:35:48 -1581.995932c -2.03  -2.76
iter: 352 03:41:58 -1581.980458c -2.80  -2.75
iter: 353 03:48:24 -1581.983765c -2.72  -2.84
iter: 354 03:54:38 -1581.993690c -2.22  -2.96
Writing to output.gpw (mode='')

iter: 355 04:01:09 -1582.014222c -2.53  -2.91
iter: 356 04:07:33 -1582.038550c -1.94  -2.72
iter: 357 04:13:50 -1582.024873c -2.21  -2.59
iter: 358 04:20:08 -1582.004283c -2.82  -2.56
iter: 359 04:26:40 -1581.978520c -3.25  -2.57
Writing to output.gpw (mode='')

iter: 360 04:33:03 -1581.976134c -2.76  -2.66
iter: 361 04:39:30 -1581.968080c -2.48  -2.69
iter: 362 04:46:01 -1581.999957c -2.36  -2.87
iter: 363 04:52:23 -1581.997330c -2.25  -2.76
iter: 364 04:58:41 -1581.994242c -2.25  -2.80
Writing to output.gpw (mode='')

iter: 365 05:04:59 -1581.984029c -2.45  -2.79
iter: 366 05:11:14 -1581.992896c -2.26  -3.04
iter: 367 05:17:33 -1581.986613c -2.71  -2.97
iter: 368 05:23:54 -1581.989175c -3.16  -3.00
iter: 369 05:30:24 -1581.986838c -3.28  -2.96
Writing to output.gpw (mode='')

iter: 370 05:36:46 -1582.126270c -2.02  -2.95
iter: 371 05:42:56 -1582.124385c -2.28  -2.25
iter: 372 05:49:16 -1582.103121c -2.47  -2.24
iter: 373 05:55:40 -1582.153716c -2.57  -2.22
iter: 374 06:02:03 -1581.998678c -2.27  -2.18
Writing to output.gpw (mode='')

iter: 375 06:08:12 -1581.944653  -1.56  -2.24
iter: 376 06:14:20 -1581.968143c -1.71  -2.79
iter: 377 06:20:29 -1582.099429c -1.97  -2.91
iter: 378 06:26:33 -1582.133200c -1.56  -2.46
iter: 379 06:32:51 -1582.209174c -1.92  -2.38
Writing to output.gpw (mode='')

iter: 380 06:38:58 -1582.206430c -1.73  -2.26
iter: 381 06:44:59 -1581.967034  -2.32  -2.21
iter: 382 06:51:21 -1581.904765  -2.19  -2.31
iter: 383 06:57:49 -1581.936984c -1.85  -2.50
iter: 384 07:04:00 -1581.969146c -2.41  -2.57
Writing to output.gpw (mode='')

iter: 385 07:10:13 -1581.980879c -2.57  -2.59
iter: 386 07:16:33 -1581.986707c -2.33  -2.67
iter: 387 07:22:47 -1582.000411c -3.05  -2.66
iter: 388 07:29:01 -1582.096295c -2.13  -2.62
iter: 389 07:35:10 -1582.083458c -1.68  -2.35
Writing to output.gpw (mode='')

iter: 390 07:41:28 -1582.135638c -1.48  -2.33
iter: 391 07:47:45 -1582.184727c -1.81  -2.28
iter: 392 07:54:00 -1581.920046  -1.82  -2.23
iter: 393 08:00:18 -1582.130924  -1.44  -2.35
iter: 394 08:06:43 -1581.966120  -1.04  -2.41
Writing to output.gpw (mode='')

iter: 395 08:13:00 -1582.181723  -1.48  -2.79
iter: 396 08:19:18 -1582.168473  -1.16  -2.46
iter: 397 08:25:19 -1582.206284c -1.77  -2.35
iter: 398 08:31:36 -1582.078929c -2.08  -2.26
iter: 399 08:37:46 -1582.014659  -2.74  -2.27
Writing to output.gpw (mode='')

iter: 400 08:44:01 -1582.191053c -2.28  -2.30
iter: 401 08:50:19 -1581.879069  -1.74  -2.19
iter: 402 08:56:39 -1581.873393  -1.72  -2.40
iter: 403 09:02:57 -1581.946498c -1.26  -2.66
iter: 404 09:09:17 -1582.034840c -1.25  -2.96
Writing to output.gpw (mode='')

iter: 405 09:15:28 -1582.027198c -1.53  -2.77
iter: 406 09:21:31 -1582.018694c -2.28  -2.68
iter: 407 09:26:19 -1582.034539c -2.27  -2.64
iter: 408 09:32:36 -1582.040397c -2.30  -2.57
iter: 409 09:39:06 -1582.492049  -1.75  -2.52
Writing to output.gpw (mode='')

iter: 410 09:45:25 -1581.836678  -1.47  -2.06
iter: 411 09:51:37 -1581.896738  -1.72  -2.22
iter: 412 09:57:57 -1581.990237c -2.34  -2.28
iter: 413 10:02:10 -1581.987184c -2.99  -2.29
iter: 414 10:08:25 -1581.988629c -1.89  -2.32
Writing to output.gpw (mode='')

iter: 415 10:15:03 -1581.978827c -2.28  -2.85
iter: 416 10:21:41 -1581.981296c -2.90  -3.02
iter: 417 10:28:11 -1581.983277c -2.80  -3.09
iter: 418 10:34:31 -1581.983564c -3.35  -3.10
iter: 419 10:40:48 -1581.983725c -3.44  -3.13
Writing to output.gpw (mode='')

iter: 420 10:46:54 -1581.985688c -3.38  -3.14
iter: 421 10:53:09 -1581.986221c -3.01  -3.13
iter: 422 10:59:32 -1581.988177c -3.28  -3.16
iter: 423 11:05:52 -1581.985120c -3.27  -3.10
iter: 424 11:12:10 -1581.990880c -2.91  -3.10
Writing to output.gpw (mode='')

iter: 425 11:18:49 -1581.984698c -2.62  -3.02
iter: 426 11:25:04 -1581.983656c -3.60  -3.16
iter: 427 11:31:06 -1581.983470c -4.10  -3.20
iter: 428 11:37:22 -1581.993540c -3.05  -3.23
iter: 429 11:43:57 -1581.993775c -2.75  -2.98
Writing to output.gpw (mode='')

iter: 430 11:50:26 -1581.997340c -3.23  -2.93
iter: 431 11:56:44 -1581.979898c -2.94  -2.85
iter: 432 12:02:57 -1581.979832c -3.04  -3.02
iter: 433 12:09:07 -1581.981762c -3.14  -3.13
iter: 434 12:15:34 -1581.983139c -3.34  -3.19
Writing to output.gpw (mode='')

iter: 435 12:22:26 -1581.985849c -2.65  -3.29
iter: 436 12:28:54 -1581.986984c -3.01  -3.25
iter: 437 12:35:07 -1581.986724c -3.24  -3.18
iter: 438 12:41:30 -1581.985621c -3.64  -3.12
iter: 439 12:47:53 -1581.983129c -3.73  -3.13
Writing to output.gpw (mode='')

iter: 440 12:54:20 -1581.984343c -3.76  -3.30
iter: 441 13:00:36 -1581.984345c -4.01  -3.28
iter: 442 13:06:49 -1582.004631c -2.71  -3.28
iter: 443 13:13:02 -1581.996064c -2.84  -2.79
iter: 444 13:19:27 -1581.993468c -3.45  -2.78
Writing to output.gpw (mode='')

iter: 445 13:25:36 -1581.996349c -3.46  -2.78
iter: 446 13:31:51 -1581.979334c -3.31  -2.75
iter: 447 13:38:03 -1581.979688c -2.72  -2.93
iter: 448 13:44:28 -1581.988826c -2.19  -3.26
iter: 449 13:50:37 -1581.984749c -3.00  -3.13
Writing to output.gpw (mode='')

iter: 450 13:57:00 -1581.989766c -3.01  -3.21
iter: 451 14:03:23 -1581.993433c -2.82  -3.11
iter: 452 14:09:51 -1581.995831c -2.95  -3.00
iter: 453 14:16:07 -1581.992770c -3.16  -2.92
iter: 454 14:22:47 -1581.993325c -3.58  -2.88
Writing to output.gpw (mode='')

iter: 455 14:29:07 -1581.999021c -3.26  -2.85
iter: 456 14:35:41 -1581.990703c -3.65  -2.78
iter: 457 14:42:03 -1581.983767c -3.84  -2.79
iter: 458 14:48:20 -1581.978127c -3.22  -2.89
iter: 459 14:54:44 -1581.979171c -2.80  -3.06
Writing to output.gpw (mode='')

iter: 460 15:01:16 -1581.981004c -2.92  -3.19
iter: 461 15:07:28 -1581.982334c -3.01  -3.32
iter: 462 15:13:56 -1581.983478c -3.22  -3.41
iter: 463 15:20:11 -1581.987517c -3.01  -3.41
iter: 464 15:26:39 -1581.989251c -2.91  -3.22
Writing to output.gpw (mode='')

iter: 465 15:33:07 -1581.998073c -2.95  -3.12
iter: 466 15:39:32 -1581.989330c -3.17  -2.88
iter: 467 15:45:36 -1581.982157c -3.63  -2.90
iter: 468 15:51:54 -1581.981805c -3.35  -3.06
iter: 469 15:58:04 -1581.985067c -4.03  -3.14
Writing to output.gpw (mode='')

iter: 470 16:04:33 -1581.987378c -4.20  -3.12
iter: 471 16:10:56 -1581.984571c -4.06  -3.02
iter: 472 16:17:22 -1581.984070c -4.59  -3.05
iter: 473 16:23:33 -1581.999258c -2.83  -3.08
iter: 474 16:29:44 -1581.988899c -3.03  -2.83
Writing to output.gpw (mode='')

iter: 475 16:35:56 -1582.003529c -3.22  -2.86
iter: 476 16:42:14 -1582.009830c -2.57  -2.74
iter: 477 16:48:27 -1582.002042c -2.49  -2.68
iter: 478 16:54:44 -1582.003511c -2.12  -2.68
iter: 479 17:00:47 -1582.010249c -1.88  -2.90
Writing to output.gpw (mode='')

iter: 480 17:07:04 -1581.991325c -2.64  -2.81
iter: 481 17:13:15 -1581.980412c -2.88  -2.85
iter: 482 17:19:42 -1581.983633c -2.51  -3.17
iter: 483 17:25:53 -1581.987622c -3.28  -3.20
iter: 484 17:32:14 -1581.991244c -3.38  -3.11
Writing to output.gpw (mode='')

iter: 485 17:38:30 -1581.981594c -3.06  -2.97
iter: 486 17:44:38 -1581.982085c -3.06  -3.18
iter: 487 17:50:37 -1581.983946c -2.91  -3.55
iter: 488 17:56:50 -1581.983983c -3.81  -3.54
iter: 489 18:03:03 -1581.986377c -3.61  -3.57
Writing to output.gpw (mode='')

iter: 490 18:09:36 -1581.987915c -3.33  -3.26
iter: 491 18:16:03 -1581.989072c -3.39  -3.17
iter: 492 18:22:06 -1581.989593c -3.40  -3.09
iter: 493 18:28:04 -1581.983757c -3.83  -3.03
iter: 494 18:34:25 -1581.982643c -3.85  -3.13
Writing to output.gpw (mode='')

iter: 495 18:40:36 -1581.986084c -3.92  -3.25
iter: 496 18:47:04 -1581.986774c -4.49  -3.17
iter: 497 18:53:13 -1581.987818c -3.79  -3.11
iter: 498 18:59:34 -1582.000309c -2.68  -3.07
iter: 499 19:05:46 -1581.985814c -2.98  -2.88
Writing to output.gpw (mode='')

iter: 500 19:12:07 -1581.981053c -3.41  -2.96
iter: 501 19:18:17 -1581.983342c -3.19  -3.32
iter: 502 19:24:38 -1581.984003c -4.22  -3.39
iter: 503 19:31:00 -1581.988238c -3.69  -3.40
iter: 504 19:37:14 -1581.982260c -3.36  -3.09
Writing to output.gpw (mode='')

iter: 505 19:43:26 -1581.982671c -3.29  -3.29
iter: 506 19:49:52 -1581.983894c -3.16  -3.60
iter: 507 19:56:19 -1581.984681c -3.93  -3.69
iter: 508 20:02:53 -1581.984644c -4.05  -3.57
iter: 509 20:09:06 -1581.985100c -4.16  -3.54
Writing to output.gpw (mode='')

iter: 510 20:15:18 -1581.984789c -4.39  -3.42
iter: 511 20:21:46 -1581.984774c -4.44  -3.41
iter: 512 20:28:03 -1581.986096c -4.07  -3.41
iter: 513 20:34:26 -1581.986199c -3.83  -3.27
iter: 514 20:41:01 -1581.984715c -4.41  -3.23
Writing to output.gpw (mode='')

iter: 515 20:47:19 -1581.986056c -4.41  -3.27
iter: 516 20:53:44 -1581.986796c -4.07  -3.20
iter: 517 20:59:56 -1581.988675c -3.95  -3.14
iter: 518 21:06:04 -1581.987799c -3.67  -3.06
iter: 519 21:12:17 -1581.988725c -3.00  -3.05
Writing to output.gpw (mode='')

iter: 520 21:18:33 -1581.991988c -2.85  -3.11
iter: 521 21:24:51 -1581.983973c -3.35  -3.02
iter: 522 21:30:57 -1581.984612c -3.18  -3.11
iter: 523 21:37:10 -1581.984113c -3.02  -3.28
iter: 524 21:43:10 -1581.984068c -3.53  -3.39
Writing to output.gpw (mode='')

iter: 525 21:49:21 -1581.984669c -3.38  -3.54
iter: 526 21:55:39 -1581.985058c -3.61  -3.54
iter: 527 22:01:51 -1581.985067c -3.73  -3.48
iter: 528 22:08:13 -1581.984526c -4.35  -3.45
iter: 529 22:14:37 -1581.984666c -4.25  -3.49
Writing to output.gpw (mode='')

iter: 530 22:20:53 -1581.984734c -4.56  -3.48
iter: 531 22:27:12 -1581.984858c -4.56  -3.46
iter: 532 22:33:32 -1581.986105c -3.81  -3.44
iter: 533 22:39:45 -1581.985382c -3.97  -3.27
iter: 534 22:46:09 -1581.988044c -3.85  -3.27
Writing to output.gpw (mode='')

iter: 535 22:52:28 -1581.984825c -3.93  -3.10
iter: 536 22:58:52 -1582.001642c -3.11  -3.14
iter: 537 23:05:17 -1582.005126c -3.03  -2.75
iter: 538 23:11:33 -1581.990057c -3.46  -2.71
iter: 539 23:18:04 -1581.999819c -3.77  -2.73
Writing to output.gpw (mode='')

iter: 540 23:24:33 -1581.974071c -2.92  -2.68
iter: 541 23:31:03 -1581.974530c -2.49  -2.94
iter: 542 23:37:20 -1581.981212c -2.35  -3.21
iter: 543 23:43:37 -1581.985443c -2.52  -3.43
iter: 544 23:49:53 -1581.985516c -2.91  -3.38
Writing to output.gpw (mode='')

iter: 545 23:56:10 -1581.984615c -3.33  -3.36
iter: 546 00:01:57 -1581.986984c -3.14  -3.55
iter: 547 00:08:07 -1581.986398c -3.28  -3.33
iter: 548 00:14:21 -1581.987811c -3.64  -3.26
iter: 549 00:21:09 -1581.983479c -3.72  -3.13
Writing to output.gpw (mode='')

iter: 550 00:27:35 -1581.983366c -3.82  -3.26
iter: 551 00:34:22 -1581.983330c -3.70  -3.35
iter: 552 00:40:46 -1581.983663c -3.59  -3.48
iter: 553 00:47:20 -1581.984196c -3.56  -3.69
iter: 554 00:53:32 -1581.984555c -4.46  -3.77
Writing to output.gpw (mode='')

iter: 555 01:00:00 -1581.984429c -4.82  -3.69
iter: 556 01:06:14 -1581.985360c -4.11  -3.73
iter: 557 01:12:29 -1581.985337c -4.24  -3.42
iter: 558 01:18:51 -1581.984757c -4.93  -3.39
iter: 559 01:25:20 -1581.984427c -4.23  -3.41
Writing to output.gpw (mode='')

iter: 560 01:31:42 -1581.984505c -4.22  -3.74
iter: 561 01:37:54 -1581.984619c -4.70  -3.78
iter: 562 01:44:10 -1581.985049c -4.48  -3.76
iter: 563 01:50:23 -1581.984893c -4.44  -3.56
iter: 564 01:56:42 -1581.984452c -4.64  -3.54
Writing to output.gpw (mode='')

iter: 565 02:02:56 -1581.984529c -4.64  -3.74
iter: 566 02:09:04 -1581.984723c -5.06  -3.77
iter: 567 02:15:37 -1581.984648c -5.42  -3.70
iter: 568 02:21:53 -1581.984563c -5.30  -3.70
iter: 569 02:28:19 -1581.984921c -4.39  -3.78
Writing to output.gpw (mode='')

iter: 570 02:34:35 -1581.984531c -4.33  -3.74
iter: 571 02:40:55 -1581.984569c -4.79  -3.85
iter: 572 02:47:05 -1581.984644c -5.14  -3.88
iter: 573 02:53:25 -1581.984630c -5.48  -3.89
iter: 574 02:59:34 -1581.984616c -5.35  -3.90
Writing to output.gpw (mode='')

iter: 575 03:05:48 -1581.984630c -5.44  -3.92
iter: 576 03:11:52 -1581.984654c -5.24  -3.93
iter: 577 03:18:05 -1581.984657c -5.20  -3.92
iter: 578 03:24:00 -1581.984882c -4.93  -3.91
iter: 579 03:30:24 -1581.984745c -5.04  -3.67
Writing to output.gpw (mode='')

iter: 580 03:36:29 -1581.984603c -5.10  -3.68
iter: 581 03:42:39 -1581.984637c -5.13  -3.82
iter: 582 03:48:49 -1581.984687c -5.63  -3.83
iter: 583 03:54:49 -1581.984752c -5.35  -3.82
iter: 584 04:00:48 -1581.984722c -4.59  -3.76
Writing to output.gpw (mode='')

iter: 585 04:06:55 -1581.984704c -4.71  -3.87
iter: 586 04:13:08 -1581.986836c -3.92  -3.87
iter: 587 04:19:11 -1581.985647c -4.21  -3.22
iter: 588 04:25:09 -1581.985848c -4.76  -3.23
iter: 589 04:31:28 -1581.985328c -4.44  -3.22
Writing to output.gpw (mode='')

iter: 590 04:37:26 -1581.984481c -3.77  -3.23
iter: 591 04:43:47 -1581.984804c -3.53  -3.90
iter: 592 04:50:05 -1581.984759c -4.27  -3.87
iter: 593 04:56:20 -1581.984696c -4.82  -3.87
iter: 594 05:02:23 -1581.984727c -4.75  -3.93
Writing to output.gpw (mode='')

iter: 595 05:08:38 -1581.985636c -4.24  -3.92
iter: 596 05:14:43 -1581.985211c -4.37  -3.47
iter: 597 05:20:59 -1581.986164c -4.41  -3.47
iter: 598 05:27:14 -1581.987535c -3.73  -3.30
iter: 599 05:33:35 -1581.983890c -3.77  -3.20
Writing to output.gpw (mode='')

iter: 600 05:39:59 -1581.986787c -3.99  -3.34
iter: 601 05:46:12 -1581.986120c -4.21  -3.23
iter: 602 05:52:39 -1581.986508c -4.57  -3.22
iter: 603 05:59:06 -1581.983701c -3.81  -3.17
iter: 604 06:05:08 -1581.984372c -3.66  -3.68
Writing to output.gpw (mode='')

iter: 605 06:11:43 -1581.985003c -3.84  -3.75
iter: 606 06:17:52 -1581.984846c -4.15  -3.76
iter: 607 06:24:06 -1581.984789c -4.78  -3.88
iter: 608 06:30:24 -1581.984990c -4.24  -4.02c
iter: 609 06:36:46 -1581.985012c -4.25  -3.86
Writing to output.gpw (mode='')

iter: 610 06:43:09 -1581.984980c -4.77  -3.78
iter: 611 06:49:23 -1581.985464c -4.64  -3.74
iter: 612 06:55:52 -1581.986500c -3.78  -3.51
iter: 613 07:02:19 -1581.986470c -3.86  -3.35
iter: 614 07:08:46 -1581.986041c -4.17  -3.29
Writing to output.gpw (mode='')

iter: 615 07:15:21 -1581.986601c -4.47  -3.27
iter: 616 07:21:46 -1581.986132c -4.33  -3.20
iter: 617 07:28:14 -1581.989620c -4.08  -3.19
iter: 618 07:34:44 -1581.985610c -4.21  -2.99
iter: 619 07:41:04 -1581.986420c -4.68  -3.02
Writing to output.gpw (mode='')

iter: 620 07:47:18 -1581.987410c -4.68  -3.02
iter: 621 07:53:27 -1581.986131c -4.85  -3.01
iter: 622 07:59:59 -1582.033284c -2.17  -3.03
iter: 623 08:06:10 -1581.976414c -2.72  -2.50
iter: 624 08:12:23 -1581.961974c -2.54  -2.58
Writing to output.gpw (mode='')

iter: 625 08:18:50 -1581.964663c -2.37  -2.71
iter: 626 08:25:16 -1581.967403c -2.64  -2.80
iter: 627 08:31:38 -1581.971233c -2.31  -2.94
iter: 628 08:37:58 -1581.979582c -2.35  -3.24
iter: 629 08:44:21 -1581.984726c -3.58  -3.42
Writing to output.gpw (mode='')

iter: 630 08:50:42 -1581.985734c -4.10  -3.32
iter: 631 08:56:55 -1581.990181c -3.63  -3.27
iter: 632 09:03:06 -1581.985295c -4.00  -3.08
iter: 633 09:09:26 -1582.021388c -2.28  -3.12
iter: 634 09:15:31 -1581.993874c -2.74  -2.57
Writing to output.gpw (mode='')

iter: 635 09:21:58 -1581.991281c -3.17  -2.60
iter: 636 09:28:09 -1581.994514c -3.28  -2.62
iter: 637 09:34:35 -1581.990340c -3.56  -2.63
iter: 638 09:40:52 -1582.019388c -2.36  -2.65
iter: 639 09:47:07 -1581.985839c -2.70  -2.77
Writing to output.gpw (mode='')

iter: 640 09:53:22 -1581.979084c -3.25  -2.86
iter: 641 09:59:45 -1581.979932c -2.55  -3.11
iter: 642 10:06:02 -1581.982945c -2.95  -3.34
iter: 643 10:12:10 -1581.985312c -3.63  -3.54
iter: 644 10:18:18 -1581.984649c -4.14  -3.43
Writing to output.gpw (mode='')

iter: 645 10:24:49 -1581.984681c -3.59  -3.58
iter: 646 10:30:56 -1581.985019c -3.56  -3.92
iter: 647 10:37:16 -1581.984937c -4.39  -3.90
iter: 648 10:43:41 -1581.984980c -5.07  -3.93
iter: 649 10:47:05 -1581.984944c -4.91  -3.88
Writing to output.gpw (mode='')

iter: 650 10:53:31 -1581.984993c -4.84  -3.92
iter: 651 11:00:00 -1581.984980c -4.96  -3.92
iter: 652 11:06:17 -1581.984968c -5.45  -3.92
iter: 653 11:12:28 -1581.984962c -5.19  -3.94
iter: 654 11:18:46 -1581.984969c -4.95  -4.01c
Writing to output.gpw (mode='')

iter: 655 11:25:04 -1581.985010c -4.81  -4.03c
iter: 656 11:31:24 -1581.984972c -4.86  -4.01c
iter: 657 11:37:42 -1581.985047c -4.82  -4.12c
iter: 658 11:43:41 -1581.985000c -5.00  -4.05c
iter: 659 11:49:58 -1581.985031c -5.08  -4.08c
Writing to output.gpw (mode='')

iter: 660 11:56:07 -1581.985021c -5.28  -4.08c
iter: 661 12:02:23 -1581.985150c -4.99  -4.07c
iter: 662 12:08:43 -1581.985238c -4.67  -3.82
iter: 663 12:15:14 -1581.985528c -4.59  -3.74
iter: 664 12:21:21 -1581.985635c -4.11  -3.60
Writing to output.gpw (mode='')

iter: 665 12:27:47 -1581.984918c -4.68  -3.53
iter: 666 12:33:54 -1581.984974c -4.79  -3.63
iter: 667 12:40:01 -1581.984971c -5.02  -3.67
iter: 668 12:46:25 -1581.985038c -4.40  -3.73
iter: 669 12:52:35 -1581.985110c -3.98  -3.99
Writing to output.gpw (mode='')

iter: 670 12:59:05 -1581.985160c -4.69  -3.96
iter: 671 13:05:15 -1581.985308c -4.37  -3.90
iter: 672 13:11:39 -1581.985180c -4.77  -3.79
iter: 673 13:17:51 -1581.985435c -4.78  -3.78
iter: 674 13:24:04 -1581.985177c -4.45  -3.61
Writing to output.gpw (mode='')

iter: 675 13:30:16 -1581.985263c -4.73  -3.67
iter: 676 13:36:27 -1581.985337c -4.34  -3.64
iter: 677 13:42:49 -1581.985673c -4.10  -3.64
iter: 678 13:49:17 -1581.985340c -4.23  -3.55
iter: 679 13:55:26 -1581.987905c -3.58  -3.54
Writing to output.gpw (mode='')

iter: 680 14:01:44 -1581.987322c -3.30  -3.28
iter: 681 14:08:10 -1581.986103c -4.04  -3.23
iter: 682 14:14:24 -1581.987739c -3.44  -3.24
iter: 683 14:20:41 -1581.984873c -3.37  -3.23
iter: 684 14:27:05 -1581.984585c -3.64  -3.36
Writing to output.gpw (mode='')

iter: 685 14:33:40 -1581.986056c -3.58  -3.53
iter: 686 14:40:00 -1581.985521c -4.48  -3.44
iter: 687 14:46:20 -1581.988684c -3.31  -3.46
iter: 688 14:52:41 -1581.987152c -3.62  -3.16
iter: 689 14:59:08 -1581.987573c -4.08  -3.16
Writing to output.gpw (mode='')

iter: 690 15:05:28 -1581.987918c -3.96  -3.12
iter: 691 15:11:45 -1581.984427c -4.09  -3.09
iter: 692 15:18:07 -1581.986743c -3.91  -3.22
iter: 693 15:24:24 -1581.985488c -4.37  -3.18
iter: 694 15:30:35 -1581.984881c -3.88  -3.21
Writing to output.gpw (mode='')

iter: 695 15:37:01 -1582.016275c -2.68  -3.38
iter: 696 15:43:29 -1581.991881c -3.12  -2.73
iter: 697 15:49:51 -1581.982892c -3.68  -2.78
iter: 698 15:56:15 -1581.983984c -3.18  -2.89
iter: 699 16:02:32 -1581.981436c -3.37  -2.92
Writing to output.gpw (mode='')

iter: 700 16:08:47 -1581.983534c -2.70  -3.40
iter: 701 16:15:02 -1581.985773c -3.04  -3.67
iter: 702 16:21:35 -1581.986667c -2.93  -3.61
iter: 703 16:27:38 -1581.985877c -3.59  -3.48
iter: 704 16:33:58 -1581.986595c -3.89  -3.47
Writing to output.gpw (mode='')

iter: 705 16:40:22 -1581.986650c -3.78  -3.37
iter: 706 16:46:46 -1581.987137c -3.85  -3.32
iter: 707 16:53:04 -1581.986981c -3.67  -3.26
iter: 708 16:59:25 -1581.987030c -3.68  -3.22
iter: 709 17:05:42 -1581.986927c -4.00  -3.20
Writing to output.gpw (mode='')

iter: 710 17:11:56 -1581.987577c -3.57  -3.18
iter: 711 17:18:03 -1581.987153c -3.32  -3.18
iter: 712 17:24:15 -1581.996957c -3.30  -3.17
iter: 713 17:30:45 -1582.000370c -2.84  -2.86
iter: 714 17:37:09 -1581.993084c -2.88  -2.79
Writing to output.gpw (mode='')

iter: 715 17:43:29 -1581.984683c -3.06  -2.80
iter: 716 17:49:49 -1581.984339c -2.70  -2.86
iter: 717 17:55:56 -1582.008272c -2.15  -3.17
iter: 718 18:02:13 -1582.019291c -2.15  -2.88
iter: 719 18:08:33 -1582.019095c -2.22  -2.76
Writing to output.gpw (mode='')

iter: 720 18:14:57 -1581.978333c -2.65  -2.70
iter: 721 18:21:22 -1581.977407c -2.78  -2.91
iter: 722 18:27:39 -1581.987661c -2.28  -3.18
iter: 723 18:34:02 -1581.997168c -2.09  -3.33
iter: 724 18:40:32 -1581.995171c -2.49  -3.05
Writing to output.gpw (mode='')

iter: 725 18:47:08 -1581.982579c -3.00  -2.97
iter: 726 18:53:36 -1581.985077c -2.99  -3.29
iter: 727 18:59:53 -1581.986743c -2.68  -3.39
iter: 728 19:06:04 -1581.985887c -3.35  -3.35
iter: 729 19:12:07 -1581.986777c -3.54  -3.44
Writing to output.gpw (mode='')

iter: 730 19:18:27 -1581.986206c -3.82  -3.38
iter: 731 19:24:41 -1581.984907c -4.19  -3.33
iter: 732 19:31:02 -1581.986273c -3.50  -3.49
iter: 733 19:37:16 -1581.985919c -3.44  -3.44
iter: 734 19:43:47 -1581.985314c -3.65  -3.47
Writing to output.gpw (mode='')

iter: 735 19:49:56 -1581.985434c -3.80  -3.68
iter: 736 19:56:22 -1581.985557c -4.34  -3.72
iter: 737 20:02:27 -1581.985834c -4.43  -3.72
iter: 738 20:08:44 -1581.987229c -3.86  -3.61
iter: 739 20:15:06 -1581.987392c -3.39  -3.37
Writing to output.gpw (mode='')

iter: 740 20:21:19 -1581.985404c -3.88  -3.31
iter: 741 20:27:33 -1581.984889c -3.86  -3.38
iter: 742 20:33:56 -1581.985236c -3.43  -3.71
iter: 743 20:40:19 -1581.985553c -3.79  -3.92
iter: 744 20:46:47 -1581.985839c -3.76  -3.92
Writing to output.gpw (mode='')

iter: 745 20:53:17 -1581.986030c -3.86  -3.78
iter: 746 20:59:30 -1581.986087c -4.00  -3.66
iter: 747 21:05:52 -1581.986541c -4.21  -3.58
iter: 748 21:12:24 -1581.986472c -3.98  -3.43
iter: 749 21:18:39 -1581.986955c -4.30  -3.39
Writing to output.gpw (mode='')

iter: 750 21:25:17 -1581.987061c -4.07  -3.29
iter: 751 21:31:23 -1581.986806c -4.44  -3.25
iter: 752 21:37:49 -1581.987455c -4.38  -3.23
iter: 753 21:44:14 -1581.985451c -4.06  -3.17
iter: 754 21:50:32 -1581.987746c -4.04  -3.25
Writing to output.gpw (mode='')

iter: 755 21:56:46 -1581.984850c -4.08  -3.17
iter: 756 22:02:54 -1581.987880c -3.31  -3.28
iter: 757 22:09:12 -1581.985340c -3.64  -3.36
iter: 758 22:15:30 -1581.990045c -3.24  -3.51
iter: 759 22:22:10 -1581.988547c -3.38  -3.18
Writing to output.gpw (mode='')

iter: 760 22:28:25 -1581.986324c -4.13  -3.15
iter: 761 22:34:50 -1581.986186c -4.43  -3.19
iter: 762 22:40:57 -1581.985016c -4.31  -3.20
iter: 763 22:47:01 -1581.984434c -3.50  -3.31
iter: 764 22:53:20 -1581.985487c -4.00  -3.52
Writing to output.gpw (mode='')

iter: 765 22:59:32 -1581.985502c -4.42  -3.52
iter: 766 23:05:43 -1581.987740c -3.41  -3.75
iter: 767 23:11:56 -1581.987193c -3.32  -3.40
iter: 768 23:18:13 -1581.991279c -3.54  -3.34
iter: 769 23:24:20 -1581.986846c -3.97  -3.05
Writing to output.gpw (mode='')

iter: 770 23:30:40 -1581.986814c -3.21  -3.09
iter: 771 23:37:00 -1581.986584c -3.42  -3.49
iter: 772 23:43:08 -1581.985319c -4.04  -3.47
iter: 773 23:49:13 -1581.985447c -3.90  -3.65
iter: 774 23:55:34 -1581.986045c -3.99  -3.73
Writing to output.gpw (mode='')

iter: 775 00:01:43 -1581.986947c -3.21  -3.71
iter: 776 00:07:49 -1581.985716c -4.56  -3.50
iter: 777 00:14:02 -1581.986122c -4.13  -3.61
iter: 778 00:20:02 -1581.985903c -4.33  -3.66
iter: 779 00:26:21 -1581.987964c -3.67  -3.67
Writing to output.gpw (mode='')

iter: 780 00:32:41 -1581.988247c -3.50  -3.28
iter: 781 00:38:47 -1581.987831c -3.94  -3.23
iter: 782 00:44:57 -1581.987794c -4.08  -3.20
iter: 783 00:51:05 -1581.985387c -4.21  -3.18
iter: 784 00:57:21 -1581.986586c -3.40  -3.29
Writing to output.gpw (mode='')

iter: 785 01:03:29 -1581.987877c -2.93  -3.61
iter: 786 01:09:48 -1581.985604c -3.82  -3.42
iter: 787 01:15:56 -1581.985707c -4.28  -3.59
iter: 788 01:22:10 -1581.985855c -4.17  -3.96
iter: 789 01:28:22 -1581.985993c -4.59  -3.94
Writing to output.gpw (mode='')

iter: 790 01:34:16 -1581.986009c -4.40  -3.83
iter: 791 01:40:26 -1581.986758c -4.44  -3.78
iter: 792 01:46:44 -1581.986616c -4.04  -3.45
iter: 793 01:53:01 -1581.986257c -4.79  -3.42
iter: 794 01:59:23 -1581.986418c -5.06  -3.43
Writing to output.gpw (mode='')

iter: 795 02:05:47 -1581.987298c -4.39  -3.40
iter: 796 02:12:02 -1581.986513c -4.54  -3.28
iter: 797 02:18:24 -1581.986133c -4.86  -3.29
iter: 798 02:24:35 -1581.985548c -3.92  -3.32
iter: 799 02:30:39 -1581.985884c -3.55  -3.85
Writing to output.gpw (mode='')

iter: 800 02:36:55 -1581.985968c -4.47  -3.86
iter: 801 02:43:09 -1581.986248c -4.60  -3.87
iter: 802 02:49:34 -1581.986145c -4.42  -3.70
iter: 803 02:55:56 -1581.986376c -4.90  -3.68
iter: 804 03:02:15 -1581.986482c -4.35  -3.55
Writing to output.gpw (mode='')

iter: 805 03:08:27 -1581.985795c -4.48  -3.51
iter: 806 03:14:55 -1581.985845c -4.10  -3.71
iter: 807 03:21:25 -1581.985984c -4.07  -3.81
iter: 808 03:27:41 -1581.986078c -4.12  -3.86
iter: 809 03:34:04 -1581.986085c -4.79  -3.86
Writing to output.gpw (mode='')

iter: 810 03:40:28 -1581.986154c -4.79  -3.86
iter: 811 03:46:53 -1581.986175c -4.35  -3.83
iter: 812 03:53:24 -1581.987685c -3.75  -3.88
iter: 813 04:00:04 -1581.987754c -3.50  -3.42
iter: 814 04:06:20 -1581.988358c -3.92  -3.35
Writing to output.gpw (mode='')

iter: 815 04:12:50 -1581.989138c -3.65  -3.25
iter: 816 04:19:12 -1581.988651c -3.83  -3.18
iter: 817 04:25:29 -1581.991958c -3.90  -3.15
iter: 818 04:31:43 -1581.997677c -3.10  -2.99
iter: 819 04:38:14 -1581.997762c -3.21  -2.89
Writing to output.gpw (mode='')

iter: 820 04:44:34 -1581.998390c -3.36  -2.84
iter: 821 04:50:45 -1581.980844c -3.31  -2.81
iter: 822 04:56:55 -1581.989253c -4.28  -2.99
iter: 823 05:03:25 -1582.001759c -3.59  -2.95
iter: 824 05:10:02 -1581.982409c -3.26  -2.73
Writing to output.gpw (mode='')

iter: 825 05:16:29 -1581.983930c -3.35  -2.80
iter: 826 05:22:49 -1581.986570c -3.80  -2.84
iter: 827 05:29:18 -1581.985886c -4.09  -2.86
iter: 828 05:35:44 -1581.992950c -2.85  -2.89
iter: 829 05:42:04 -1581.987449c -3.11  -3.08
Writing to output.gpw (mode='')

iter: 830 05:48:24 -1581.985143c -3.54  -3.15
iter: 831 05:54:40 -1581.985737c -3.46  -3.35
iter: 832 06:00:58 -1581.990166c -3.39  -3.43
iter: 833 06:07:21 -1581.992967c -2.87  -3.22
iter: 834 06:13:36 -1581.988144c -3.74  -3.09
Writing to output.gpw (mode='')

iter: 835 06:20:05 -1581.993185c -3.80  -3.11
iter: 836 06:26:22 -1581.993969c -3.40  -2.94
iter: 837 06:32:50 -1581.995587c -3.65  -2.89
iter: 838 06:39:09 -1581.996412c -3.49  -2.85
iter: 839 06:45:20 -1581.982031c -3.53  -2.82
Writing to output.gpw (mode='')

iter: 840 06:51:54 -1581.991389c -3.28  -2.99
iter: 841 06:58:16 -1581.989235c -3.61  -2.92
iter: 842 07:04:35 -1581.983693c -3.16  -2.93
iter: 843 07:11:02 -1581.990335c -2.52  -3.25
iter: 844 07:17:17 -1581.994789c -2.39  -3.20
Writing to output.gpw (mode='')

iter: 845 07:23:39 -1581.985314c -3.17  -3.07
iter: 846 07:29:55 -1581.989655c -3.20  -3.29
iter: 847 07:36:14 -1581.987893c -3.35  -3.27
iter: 848 07:42:34 -1581.988184c -4.05  -3.27
iter: 849 07:49:08 -1581.985906c -3.75  -3.21
Writing to output.gpw (mode='')

iter: 850 07:55:17 -1581.988413c -3.87  -3.30
iter: 851 08:01:37 -1581.992720c -2.93  -3.21
iter: 852 08:07:55 -1581.986789c -2.91  -3.05
iter: 853 08:14:17 -1581.991582c -2.84  -3.19
iter: 854 08:20:41 -1581.988045c -2.82  -3.17
Writing to output.gpw (mode='')

iter: 855 08:27:12 -1582.013088c -2.74  -3.20
iter: 856 08:33:33 -1582.017871c -2.32  -2.77
iter: 857 08:39:43 -1582.013078c -2.80  -2.69
iter: 858 08:45:46 -1582.046708c -2.62  -2.65
iter: 859 08:52:06 -1582.008612c -2.67  -2.49
Writing to output.gpw (mode='')

iter: 860 08:58:16 -1581.991360c -3.05  -2.50
iter: 861 09:04:27 -1581.989392c -3.09  -2.54
iter: 862 09:10:34 -1581.993400c -2.29  -2.57
iter: 863 09:16:54 -1582.010610c -2.01  -2.95
iter: 864 09:23:01 -1582.016366c -2.14  -2.82
Writing to output.gpw (mode='')

iter: 865 09:29:18 -1581.984857c -2.44  -2.73
iter: 866 09:35:41 -1581.981013c -2.72  -2.87
iter: 867 09:41:53 -1581.982762c -2.56  -3.10
iter: 868 09:48:11 -1581.984839c -3.11  -3.27
iter: 869 09:54:31 -1581.987553c -3.40  -3.38
Writing to output.gpw (mode='')

iter: 870 10:01:05 -1581.989413c -3.43  -3.32
iter: 871 10:07:37 -1581.989437c -3.32  -3.18
iter: 872 10:13:59 -1581.986080c -3.75  -3.15
iter: 873 10:20:25 -1581.987175c -3.51  -3.34
iter: 874 10:26:47 -1581.986815c -3.93  -3.39
Writing to output.gpw (mode='')

iter: 875 10:33:02 -1581.989778c -3.51  -3.45
iter: 876 10:39:34 -1581.989401c -3.64  -3.20
iter: 877 10:46:06 -1581.991191c -3.82  -3.17
iter: 878 10:52:27 -1581.992103c -3.33  -3.07
iter: 879 10:58:34 -1581.987889c -3.98  -3.03
Writing to output.gpw (mode='')

iter: 880 11:04:48 -1582.002260c -3.14  -3.07
iter: 881 11:11:01 -1581.996086c -3.07  -2.77
iter: 882 11:17:11 -1581.990253c -3.10  -2.78
iter: 883 11:23:05 -1581.981260c -2.71  -2.82
iter: 884 11:29:32 -1581.981378c -2.57  -2.99
Writing to output.gpw (mode='')

iter: 885 11:35:52 -1581.983074c -2.62  -3.15
iter: 886 11:42:15 -1581.986202c -2.72  -3.38
iter: 887 11:48:30 -1581.988595c -2.89  -3.43
iter: 888 11:54:58 -1581.989654c -3.15  -3.37
iter: 889 12:01:15 -1581.987201c -3.40  -3.28
Writing to output.gpw (mode='')

iter: 890 12:07:34 -1581.987171c -3.56  -3.33
iter: 891 12:13:42 -1581.989018c -3.23  -3.44
iter: 892 12:20:00 -1581.993285c -3.39  -3.34
iter: 893 12:26:14 -1581.996404c -2.71  -3.11
iter: 894 12:32:30 -1581.985046c -3.22  -3.01
Writing to output.gpw (mode='')

iter: 895 12:38:56 -1581.998845c -3.02  -3.16
iter: 896 12:45:12 -1582.020393c -2.62  -2.95
iter: 897 12:51:18 -1582.025482c -2.33  -2.72
iter: 898 12:57:44 -1581.995146c -3.31  -2.65
iter: 899 13:03:51 -1582.011185c -3.55  -2.69
Writing to output.gpw (mode='')

iter: 900 13:09:58 -1582.036962c -2.84  -2.61
iter: 901 13:16:08 -1582.094375c -2.38  -2.52
iter: 902 13:22:33 -1581.922457c -1.88  -2.41
iter: 903 13:28:43 -1581.971705c -2.20  -2.67
iter: 904 13:34:54 -1581.973852c -2.97  -2.71
Writing to output.gpw (mode='')

iter: 905 13:41:16 -1581.977017c -2.26  -2.81
iter: 906 13:47:48 -1581.987384c -2.18  -3.15
iter: 907 13:54:07 -1581.992621c -2.84  -3.16
iter: 908 14:00:41 -1581.992027c -2.98  -3.07
iter: 909 14:07:05 -1581.993568c -3.41  -3.04
Writing to output.gpw (mode='')

iter: 910 14:13:40 -1581.997907c -3.08  -2.98
iter: 911 14:20:10 -1581.985638c -3.09  -2.90
iter: 912 14:26:32 -1581.989589c -3.75  -2.99
iter: 913 14:32:52 -1581.986581c -3.34  -2.97
iter: 914 14:39:30 -1581.992786c -3.14  -3.12
Writing to output.gpw (mode='')

iter: 915 14:45:54 -1581.994878c -2.75  -3.03
iter: 916 14:52:19 -1581.996604c -2.61  -2.96
iter: 917 14:58:37 -1581.986089c -2.91  -2.94
iter: 918 15:05:03 -1581.989234c -2.75  -3.10
iter: 919 15:11:15 -1582.022935c -2.55  -3.09
Writing to output.gpw (mode='')

iter: 920 15:17:33 -1582.023707c -2.01  -2.72
iter: 921 15:23:57 -1581.981169c -2.42  -2.64
iter: 922 15:30:11 -1581.985569c -2.84  -3.05
iter: 923 15:36:18 -1581.986591c -3.48  -3.11
iter: 924 15:42:45 -1581.993773c -2.63  -3.16
Writing to output.gpw (mode='')

iter: 925 15:49:01 -1582.002876c -2.26  -3.13
iter: 926 15:55:17 -1581.991718c -3.05  -2.99
iter: 927 16:01:31 -1582.020578c -2.46  -3.02
iter: 928 16:07:43 -1582.034063c -2.41  -2.66
iter: 929 16:14:04 -1582.013186c -2.65  -2.60
Writing to output.gpw (mode='')

iter: 930 16:20:26 -1581.984684c -2.83  -2.58
iter: 931 16:26:52 -1581.981979c -2.78  -2.73
iter: 932 16:33:16 -1581.988451c -2.84  -2.80
iter: 933 16:39:52 -1581.983578c -2.44  -2.92
iter: 934 16:46:05 -1581.986909c -2.94  -3.03
Writing to output.gpw (mode='')

iter: 935 16:52:20 -1581.991553c -2.30  -3.26
iter: 936 16:58:35 -1581.988996c -3.17  -3.21
iter: 937 17:04:59 -1581.994643c -2.96  -3.24
iter: 938 17:11:31 -1581.988998c -3.36  -3.09
iter: 939 17:17:55 -1581.988754c -3.44  -3.14
Writing to output.gpw (mode='')

iter: 940 17:24:17 -1581.993426c -2.84  -3.33
iter: 941 17:30:24 -1581.992624c -2.87  -3.19
iter: 942 17:36:29 -1582.026758c -2.50  -3.14
iter: 943 17:42:42 -1581.995683c -2.84  -2.68
iter: 944 17:48:46 -1582.007335c -3.34  -2.73
Writing to output.gpw (mode='')

iter: 945 17:55:05 -1582.055375c -2.62  -2.68
iter: 946 18:01:23 -1582.019734c -2.61  -2.49
iter: 947 18:07:34 -1581.986432c -2.80  -2.49
iter: 948 18:13:47 -1582.041498c -2.38  -2.66
iter: 949 18:20:20 -1582.023338c -2.63  -2.55
Writing to output.gpw (mode='')

iter: 950 18:26:33 -1582.437106  -1.84  -2.53
iter: 951 18:32:50 -1581.844666  -1.71  -2.01
iter: 952 18:39:13 -1581.882304  -1.65  -2.12
iter: 953 18:45:40 -1581.899966c -2.09  -2.16
iter: 954 18:51:55 -1581.942511c -2.02  -2.21
Writing to output.gpw (mode='')

iter: 955 18:58:14 -1581.889271c -2.12  -2.24
iter: 956 19:04:31 -1581.961960c -2.22  -2.64
iter: 957 19:10:42 -1582.342603  -1.79  -2.65
iter: 958 19:17:06 -1582.155392  -2.17  -2.12
iter: 959 19:23:19 -1581.898697  -2.17  -2.13
Writing to output.gpw (mode='')

iter: 960 19:29:32 -1581.903924  -1.71  -2.34
iter: 961 19:35:52 -1581.898491c -1.77  -2.42
iter: 962 19:41:59 -1581.954107c -1.31  -2.77
iter: 963 19:48:19 -1581.983573c -1.74  -3.08
iter: 964 19:54:37 -1582.019155c -2.17  -3.16
Writing to output.gpw (mode='')

iter: 965 20:01:20 -1581.985896c -2.91  -2.75
iter: 966 20:07:23 -1581.980483c -3.47  -2.84
iter: 967 20:13:48 -1581.990476c -3.34  -3.00
iter: 968 20:20:10 -1581.994013c -3.71  -2.95
iter: 969 20:26:45 -1581.999057c -3.38  -2.90
Writing to output.gpw (mode='')

iter: 970 20:33:02 -1582.014219c -2.89  -2.82
iter: 971 20:39:33 -1582.073668c -2.39  -2.69
iter: 972 20:46:06 -1581.962420c -2.03  -2.48
iter: 973 20:52:23 -1581.963633c -2.58  -2.66
iter: 974 20:58:39 -1581.981959c -2.22  -3.02
Writing to output.gpw (mode='')

iter: 975 21:05:07 -1581.996595c -2.97  -3.20
iter: 976 21:11:22 -1582.002216c -3.05  -2.96
iter: 977 21:17:48 -1582.000022c -3.02  -2.85
iter: 978 21:23:54 -1582.000222c -3.59  -2.81
iter: 979 21:30:16 -1581.988998c -3.67  -2.78
Writing to output.gpw (mode='')

iter: 980 21:36:40 -1581.986025c -3.64  -2.84
iter: 981 21:42:54 -1581.993219c -3.75  -2.94
iter: 982 21:49:07 -1581.988688c -3.92  -2.91
iter: 983 21:55:33 -1581.988581c -3.59  -3.02
iter: 984 22:01:52 -1581.994314c -3.17  -3.05
Writing to output.gpw (mode='')

iter: 985 22:08:06 -1581.991719c -3.16  -3.15
iter: 986 22:14:04 -1582.009884c -2.94  -3.17
iter: 987 22:20:07 -1582.023938c -2.43  -2.79
iter: 988 22:26:25 -1581.999135c -3.11  -2.69
iter: 989 22:32:47 -1581.986017c -3.11  -2.72
Writing to output.gpw (mode='')

iter: 990 22:39:03 -1582.011289c -2.36  -3.02
iter: 991 22:45:43 -1582.048363c -1.77  -2.93
iter: 992 22:51:52 -1582.046403c -2.03  -2.70
iter: 993 22:58:13 -1581.969068c -2.22  -2.60
iter: 994 23:04:27 -1581.981525c -2.09  -3.01
Writing to output.gpw (mode='')

iter: 995 23:10:49 -1581.997566c -2.95  -3.18
iter: 996 23:16:52 -1581.992335c -3.66  -3.02
iter: 997 23:23:32 -1582.049285c -2.49  -3.04
iter: 998 23:29:44 -1582.054800c -2.51  -2.48
iter: 999 23:35:54 -1582.031957c -2.93  -2.45

Did not converge!

Here are some tips:

1) Make sure the geometry and spin-state is physically sound.
2) Use less aggressive density mixing.
3) Solve the eigenvalue problem more accurately at each scf-step.
4) Use a smoother distribution function for the occupation numbers.
5) Try adding more empty states.
6) Use enough k-points.
7) Don't let your structure optimization algorithm take too large steps.
8) Solve the Poisson equation more accurately.
9) Better initial guess for the wave functions.

See details here:

    https://wiki.fysik.dtu.dk/gpaw/documentation/convergence.html


