
  ___ ___ ___ _ _ _  
 |   |   |_  | | | | 
 | | | | | . | | | | 
 |__ |  _|___|_____|  22.8.0
 |___|_|             

User:   vazumah@c11.hercules
Date:   Tue Jan 24 05:51:10 2023
Arch:   x86_64
Pid:    24462
CWD:    /home/vazumah/Python_projects/LiNRR/autocad_start/slab_experiments/free_slabs_big_vacuum/Ca/fcc100/substrate
Python: 3.10.8
gpaw:   /home/vazumah/.conda/envs/GPAW/lib/python3.10/site-packages/gpaw
_gpaw:  /home/vazumah/.conda/envs/GPAW/lib/python3.10/site-packages/
        _gpaw.cpython-310-x86_64-linux-gnu.so
ase:    /home/vazumah/.conda/envs/GPAW/lib/python3.10/site-packages/ase (version 3.22.1)
numpy:  /home/vazumah/.conda/envs/GPAW/lib/python3.10/site-packages/numpy (version 1.24.1)
scipy:  /home/vazumah/.conda/envs/GPAW/lib/python3.10/site-packages/scipy (version 1.10.0)
libxc:  5.2.3
units:  Angstrom and eV
cores: 24
OpenMP: True
OMP_NUM_THREADS: 1

Input parameters:
  h: 0.16
  kpts: {size: [4, 4, 1]}
  maxiter: 999
  occupations: {name: fermi-dirac,
                width: 0.05}
  poissonsolver: {dipolelayer: xy}
  xc: BEEF-vdW

System changes: positions, numbers, cell, pbc, initial_charges, initial_magmoms 

Initialize ...

species:
  Ca:
    name: Calcium
    id: 0641b8f64fa1d43c6d3de45527ace046
    Z: 20.0
    valence: 10
    core: 10
    charge: 0.0
    file: /home/vazumah/.conda/envs/GPAW/share/gpaw/Ca.PBE.gz
    compensation charges: {type: gauss,
                           rc: 0.37,
                           lmax: 2}
    cutoffs: {filter: 2.10,
              core: 1.17}
    valence states:
      #              energy  rcut
      - 3s(2.00)   -47.086   1.175
      - 4s(2.00)    -3.766   1.175
      - 3p(6.00)   -28.008   1.154
      -  p          -0.797   1.154
      -  d           0.000   0.937
  
    # Using partial waves for Ca as LCAO basis

Reference energy: -666391.292358  # eV

Spin-paired calculation

Convergence criteria:
 Maximum [total energy] change in last 3 cyles: 0.0005 eV / electron
 Maximum integral of absolute [dens]ity change: 0.0001 electrons / valence electron
 Maximum integral of absolute [eigenst]ate change: 4e-08 eV^2 / valence electron
 Maximum number of scf [iter]ations: 999
 (Square brackets indicate name in SCF output, whereas a 'c' in
 the SCF output indicates the quantity has converged.)

Symmetries present (total): 8

  ( 1  0  0)  ( 1  0  0)  ( 0  1  0)  ( 0  1  0)  ( 0 -1  0)  ( 0 -1  0)
  ( 0  1  0)  ( 0 -1  0)  ( 1  0  0)  (-1  0  0)  ( 1  0  0)  (-1  0  0)
  ( 0  0  1)  ( 0  0  1)  ( 0  0  1)  ( 0  0  1)  ( 0  0  1)  ( 0  0  1)

  (-1  0  0)  (-1  0  0)
  ( 0  1  0)  ( 0 -1  0)
  ( 0  0  1)  ( 0  0  1)

16 k-points: 4 x 4 x 1 Monkhorst-Pack grid
3 k-points in the irreducible part of the Brillouin zone
       k-points in crystal coordinates                weights
   0:     0.12500000    0.12500000    0.00000000          4/16
   1:     0.37500000    0.12500000    0.00000000          8/16
   2:     0.37500000    0.37500000    0.00000000          4/16

Wave functions: Uniform real-space grid
  Kinetic energy operator: 6*3+1=19 point O(h^6) finite-difference Laplacian
  ScaLapack parameters: grid=1x1, blocksize=None
  Wavefunction extrapolation:
    Improved wavefunction reuse through dual PAW basis 

Occupation numbers: Fermi-Dirac:
  width: 0.0500  # eV
 

Eigensolver
   Davidson(niter=2) 

Densities:
  Coarse grid: 72*72*176 grid
  Fine grid: 144*144*352 grid
  Total Charge: 0.000000 

Density mixing:
  Method: separate
  Backend: pulay
  Linear mixing parameter: 0.05
  old densities: 5
  Damping of long wavelength oscillations: 50 

Hamiltonian:
  XC and Coulomb potentials evaluated on a 144*144*352 grid
  Using the BEEF-vdW Exchange-Correlation functional
  Interpolation: tri-quintic (5. degree polynomial)
  Poisson solver: FastPoissonSolver using
    Stencil: 6*3+1=19 point O(h^6) finite-difference Laplacian
    FFT axes: [0, 1]
    FST axes: [2]

Dipole correction along z-axis 

XC parameters: BEEF-vdW with 2 nearest neighbor stencil

Memory estimate:
  Process memory now: 165.58 MiB
  Calculator: 708.60 MiB
    Density: 61.73 MiB
      Arrays: 22.35 MiB
      Localized functions: 30.88 MiB
      Mixer: 8.50 MiB
    Hamiltonian: 17.05 MiB
      Arrays: 14.61 MiB
      XC: 0.00 MiB
      Poisson: 0.00 MiB
      vbar: 2.44 MiB
    Wavefunctions: 629.82 MiB
      Arrays psit_nG: 306.12 MiB
      Eigensolver: 319.58 MiB
      Projections: 0.16 MiB
      Projectors: 3.96 MiB

Total number of cores used: 24
Parallelization over k-points: 3
Domain decomposition: 1 x 2 x 4

Number of atoms: 36
Number of atomic orbitals: 180
Number of bands in calculation: 180
Number of valence electrons: 360
Bands to converge: occupied

... initialized

Initializing position-dependent things.

Density initialized from atomic densities
Creating initial wave functions:
  180 bands from LCAO basis set

        .----------------------------.  
       /|                            |  
      / |                            |  
     /  |                            |  
    /   |                            |  
   /    |                            |  
  /     |                            |  
 *      |                            |  
 |      |                            |  
 |      |                            |  
 |      |                            |  
 |      |                            |  
 |      |                            |  
 |      |                            |  
 |      |                            |  
 |    Ca|      Ca        Ca          |  
 |      |                            |  
 | Ca   |   CCa      CaCa      Ca    |  
 |      |                            |  
 Ca     |CaCa      CCa       Ca      |  
 |      |                            |  
 |      |                            |  
 |    CCa      CaCa      CCa         |  
 |      |                            |  
 | Ca   |   CCa      CaCa      Ca    |  
 |      |                            |  
 Ca     |CaCa      CCa       Ca      |  
 |      |                            |  
 |     Ca        Ca       Ca         |  
 |      |                            |  
 |      |                            |  
 |      |                            |  
 |      |                            |  
 |      |                            |  
 |      |                            |  
 |      .----------------------------.  
 |     /                            /   
 |    /                            /    
 |   /                            /     
 |  /                            /      
 | /                            /       
 |/                            /        
 *----------------------------*         

Positions:
   0 Ca     1.972828    1.972828   10.000000    ( 0.0000,  0.0000,  0.0000)
   1 Ca     5.918484    1.972828   10.000000    ( 0.0000,  0.0000,  0.0000)
   2 Ca     9.864140    1.972828   10.000000    ( 0.0000,  0.0000,  0.0000)
   3 Ca     1.972828    5.918484   10.000000    ( 0.0000,  0.0000,  0.0000)
   4 Ca     5.918484    5.918484   10.000000    ( 0.0000,  0.0000,  0.0000)
   5 Ca     9.864140    5.918484   10.000000    ( 0.0000,  0.0000,  0.0000)
   6 Ca     1.972828    9.864140   10.000000    ( 0.0000,  0.0000,  0.0000)
   7 Ca     5.918484    9.864140   10.000000    ( 0.0000,  0.0000,  0.0000)
   8 Ca     9.864140    9.864140   10.000000    ( 0.0000,  0.0000,  0.0000)
   9 Ca     0.000000    0.000000   12.790000    ( 0.0000,  0.0000,  0.0000)
  10 Ca     3.945656    0.000000   12.790000    ( 0.0000,  0.0000,  0.0000)
  11 Ca     7.891312    0.000000   12.790000    ( 0.0000,  0.0000,  0.0000)
  12 Ca     0.000000    3.945656   12.790000    ( 0.0000,  0.0000,  0.0000)
  13 Ca     3.945656    3.945656   12.790000    ( 0.0000,  0.0000,  0.0000)
  14 Ca     7.891312    3.945656   12.790000    ( 0.0000,  0.0000,  0.0000)
  15 Ca     0.000000    7.891312   12.790000    ( 0.0000,  0.0000,  0.0000)
  16 Ca     3.945656    7.891312   12.790000    ( 0.0000,  0.0000,  0.0000)
  17 Ca     7.891312    7.891312   12.790000    ( 0.0000,  0.0000,  0.0000)
  18 Ca     1.972828    1.972828   15.580000    ( 0.0000,  0.0000,  0.0000)
  19 Ca     5.918484    1.972828   15.580000    ( 0.0000,  0.0000,  0.0000)
  20 Ca     9.864140    1.972828   15.580000    ( 0.0000,  0.0000,  0.0000)
  21 Ca     1.972828    5.918484   15.580000    ( 0.0000,  0.0000,  0.0000)
  22 Ca     5.918484    5.918484   15.580000    ( 0.0000,  0.0000,  0.0000)
  23 Ca     9.864140    5.918484   15.580000    ( 0.0000,  0.0000,  0.0000)
  24 Ca     1.972828    9.864140   15.580000    ( 0.0000,  0.0000,  0.0000)
  25 Ca     5.918484    9.864140   15.580000    ( 0.0000,  0.0000,  0.0000)
  26 Ca     9.864140    9.864140   15.580000    ( 0.0000,  0.0000,  0.0000)
  27 Ca     0.000000    0.000000   18.370000    ( 0.0000,  0.0000,  0.0000)
  28 Ca     3.945656    0.000000   18.370000    ( 0.0000,  0.0000,  0.0000)
  29 Ca     7.891312    0.000000   18.370000    ( 0.0000,  0.0000,  0.0000)
  30 Ca     0.000000    3.945656   18.370000    ( 0.0000,  0.0000,  0.0000)
  31 Ca     3.945656    3.945656   18.370000    ( 0.0000,  0.0000,  0.0000)
  32 Ca     7.891312    3.945656   18.370000    ( 0.0000,  0.0000,  0.0000)
  33 Ca     0.000000    7.891312   18.370000    ( 0.0000,  0.0000,  0.0000)
  34 Ca     3.945656    7.891312   18.370000    ( 0.0000,  0.0000,  0.0000)
  35 Ca     7.891312    7.891312   18.370000    ( 0.0000,  0.0000,  0.0000)

Unit cell:
           periodic     x           y           z      points  spacing
  1. axis:    yes   11.836968    0.000000    0.000000    72     0.1644
  2. axis:    yes    0.000000   11.836968    0.000000    72     0.1644
  3. axis:    no     0.000000    0.000000   28.370000   176     0.1612

  Lengths:  11.836968  11.836968  28.370000
  Angles:   90.000000  90.000000  90.000000

Effective grid spacing dv^(1/3) = 0.1633

     iter     time        total  log10-change:
                         energy  eigst   dens
iter:   1 05:59:50 -1553.828033
iter:   2 06:06:57 -1562.867283  +0.93  -1.64
iter:   3 06:14:21 -1568.903592  +0.79  -1.66
iter:   4 06:21:26 -1573.878790  +0.66  -1.65
Writing to output.gpw (mode='')

iter:   5 06:28:53 -1578.501941  +0.66  -1.77
iter:   6 06:35:53 -1580.171554  +0.33  -2.02
iter:   7 06:43:00 -1585.136465  +0.61  -1.96
iter:   8 06:49:48 -1582.055272  +0.33  -1.69
iter:   9 06:56:53 -1583.225597  -0.05  -2.01
Writing to output.gpw (mode='')

iter:  10 07:03:37 -1584.032877  -0.17  -2.02
iter:  11 07:10:28 -1584.702777  +0.07  -1.99
iter:  12 07:17:36 -1586.769593  +0.56  -1.97
iter:  13 07:24:56 -1585.822805  -0.44  -1.92
iter:  14 07:32:17 -1585.435769  -0.35  -1.96
Writing to output.gpw (mode='')

iter:  15 07:39:38 -1585.524437  -0.38  -2.02
iter:  16 07:45:55 -1595.981094  +1.16  -2.06
iter:  17 07:52:58 -1589.302951  -0.17  -1.37
iter:  18 08:00:21 -1583.385592  +0.77  -1.42
iter:  19 08:07:48 -1585.618968  -0.31  -1.66
Writing to output.gpw (mode='')

iter:  20 08:15:14 -1585.596343  -0.34  -1.67
iter:  21 08:22:46 -1589.576377  -0.06  -1.72
iter:  22 08:30:16 -1586.304366  -0.46  -1.59
iter:  23 08:37:41 -1587.083358  -1.12  -1.68
iter:  24 08:45:09 -1620.102416  +1.30  -1.67
Writing to output.gpw (mode='')

iter:  25 08:52:30 -1603.624911  +0.39  -1.13
iter:  26 08:59:51 -1597.333437  +0.16  -1.16
iter:  27 09:06:39 -1587.689035  +0.52  -1.19
iter:  28 09:13:58 -1583.121930  +0.78  -1.27
iter:  29 09:21:21 -1582.540101  +1.23  -1.37
Writing to output.gpw (mode='')

iter:  30 09:28:34 -1586.140836  +1.05  -1.70
iter:  31 09:35:40 -1587.343943  +0.37  -1.98
iter:  32 09:42:59 -1586.888041  -0.11  -1.94
iter:  33 09:50:22 -1587.551604  -0.04  -2.22
iter:  34 09:57:09 -1587.309803  -0.98  -2.15
Writing to output.gpw (mode='')

iter:  35 10:03:30 -1587.072880  -1.11  -2.18
iter:  36 10:10:30 -1587.201595  -1.32  -2.24
iter:  37 10:17:42 -1587.826034  +0.35  -2.20
iter:  38 10:24:34 -1587.136548  -0.77  -2.10
iter:  39 10:32:03 -1587.188106  -0.81  -2.36
Writing to output.gpw (mode='')

iter:  40 10:39:12 -1587.260232c -0.89  -2.39
iter:  41 10:46:45 -1587.313498c -1.39  -2.49
iter:  42 10:53:57 -1587.313668c -1.55  -2.63
iter:  43 11:01:13 -1587.341528c -1.33  -2.74
iter:  44 11:08:16 -1587.354751c -1.75  -2.70
Writing to output.gpw (mode='')

iter:  45 11:15:37 -1587.367680c -1.88  -2.69
iter:  46 11:23:04 -1587.413606c -1.23  -2.68
iter:  47 11:29:16 -1587.411221c -1.90  -2.53
iter:  48 11:34:51 -1587.412219c -1.71  -2.55
iter:  49 11:42:06 -1587.426957c -1.40  -2.62
Writing to output.gpw (mode='')

iter:  50 11:49:02 -1587.446344c -1.50  -2.65
iter:  51 11:55:34 -1587.513168c -0.95  -2.68
iter:  52 12:02:57 -1587.466511c -1.30  -2.58
iter:  53 12:09:35 -1587.503644c -1.69  -2.74
iter:  54 12:16:42 -1587.884262  -0.34  -2.68
Writing to output.gpw (mode='')

iter:  55 12:24:14 -1587.610115  -1.49  -2.10
iter:  56 12:31:33 -1587.435971  -0.75  -2.17
iter:  57 12:37:32 -1587.477104c -1.21  -2.39
iter:  58 12:44:36 -1587.501683c -0.78  -2.48
iter:  59 12:52:01 -1587.561657c -0.82  -2.74
Writing to output.gpw (mode='')

iter:  60 12:57:51 -1587.565209c -2.11  -2.85
iter:  61 13:04:56 -1587.571791c -2.07  -2.98
iter:  62 13:12:30 -1587.650457c -0.91  -3.08
iter:  63 13:19:41 -1587.658919c -1.57  -2.55
iter:  64 13:26:57 -1587.674999c -1.68  -2.49
Writing to output.gpw (mode='')

iter:  65 13:34:22 -1587.690797c -1.76  -2.44
iter:  66 13:41:35 -1587.713732c -1.64  -2.40
iter:  67 13:47:37 -1587.771308c -1.44  -2.35
iter:  68 13:54:53 -1587.619280c -1.72  -2.27
iter:  69 14:02:12 -1587.658937c -2.32  -2.37
Writing to output.gpw (mode='')

iter:  70 14:07:29 -1587.801615  -1.26  -2.35
iter:  71 14:14:40 -1587.577462  -1.16  -2.22
iter:  72 14:21:03 -1587.584944  -1.57  -2.44
iter:  73 14:28:04 -1587.587956c -1.37  -2.49
iter:  74 14:35:21 -1587.637683c -0.77  -2.63
Writing to output.gpw (mode='')

iter:  75 14:42:56 -1587.860951  -0.56  -2.72
iter:  76 14:50:09 -1587.817565  -1.55  -2.31
iter:  77 14:57:35 -1587.574470  -1.11  -2.29
iter:  78 15:03:45 -1587.599709  -1.08  -2.57
iter:  79 15:10:13 -1587.794969  -0.31  -2.77
Writing to output.gpw (mode='')

iter:  80 15:16:39 -1587.628075  -1.56  -2.48
iter:  81 15:24:00 -1587.696215c -0.74  -2.89
iter:  82 15:31:09 -1587.682604c -1.75  -2.77
iter:  83 15:37:18 -1587.661968c -2.54  -2.75
iter:  84 15:44:45 -1587.658474c -2.79  -2.81
Writing to output.gpw (mode='')

iter:  85 15:51:57 -1587.663292c -2.85  -2.82
iter:  86 15:59:21 -1587.693287c -1.15  -2.80
iter:  87 16:06:41 -1587.646408c -1.66  -2.62
iter:  88 16:13:58 -1587.695517c -0.87  -2.95
iter:  89 16:21:27 -1587.735125c -1.12  -2.82
Writing to output.gpw (mode='')

iter:  90 16:28:25 -1587.791203c -1.09  -2.59
iter:  91 16:35:46 -1587.783484c -1.68  -2.41
iter:  92 16:42:38 -1587.847080c -1.29  -2.36
iter:  93 16:49:52 -1587.778299c -2.27  -2.27
iter:  94 16:56:49 -1587.880649c -1.36  -2.28
Writing to output.gpw (mode='')

iter:  95 17:04:05 -1587.827451c -2.17  -2.19
iter:  96 17:10:18 -1587.662478  -1.51  -2.19
iter:  97 17:17:25 -1587.692088c -2.47  -2.32
iter:  98 17:24:40 -1587.677189c -2.28  -2.33
iter:  99 17:31:52 -1587.640691c -0.97  -2.36
Writing to output.gpw (mode='')

iter: 100 17:39:08 -1587.791664c -0.42  -2.78
iter: 101 17:46:13 -1587.759454c -1.55  -2.44
iter: 102 17:52:46 -1587.644136c -1.03  -2.42
iter: 103 18:00:02 -1587.712304c -0.77  -2.98
iter: 104 18:07:13 -1587.696372c -1.96  -2.84
Writing to output.gpw (mode='')

iter: 105 18:13:15 -1587.671035c -2.71  -2.83
iter: 106 18:20:12 -1587.670283c -2.11  -3.11
iter: 107 18:27:11 -1587.673107c -2.40  -3.40
iter: 108 18:34:33 -1587.677257c -2.08  -3.56
iter: 109 18:40:55 -1587.678389c -2.57  -3.38
Writing to output.gpw (mode='')

iter: 110 18:48:12 -1587.675791c -3.30  -3.28
iter: 111 18:55:35 -1587.677476c -2.23  -3.47
iter: 112 19:02:32 -1587.676934c -3.34  -3.50
iter: 113 19:09:47 -1587.676463c -3.15  -3.52
iter: 114 19:17:19 -1587.677170c -2.77  -3.82
Writing to output.gpw (mode='')

iter: 115 19:24:29 -1587.677114c -3.61  -3.76
iter: 116 19:31:44 -1587.677758c -2.82  -3.91
iter: 117 19:39:01 -1587.677659c -3.53  -3.81
iter: 118 19:46:30 -1587.678072c -3.07  -4.13c
iter: 119 19:53:46 -1587.678254c -3.57  -3.99
Writing to output.gpw (mode='')

iter: 120 20:01:10 -1587.679598c -2.77  -3.86
iter: 121 20:08:35 -1587.679576c -3.53  -3.41
iter: 122 20:16:03 -1587.679591c -3.63  -3.37
iter: 123 20:23:15 -1587.680385c -3.30  -3.34
iter: 124 20:30:18 -1587.680592c -3.55  -3.27
Writing to output.gpw (mode='')

iter: 125 20:37:41 -1587.679777c -3.55  -3.24
iter: 126 20:44:36 -1587.678900c -2.67  -3.26
iter: 127 20:51:52 -1587.679169c -3.50  -3.87
iter: 128 20:59:10 -1587.679494c -3.79  -3.96
iter: 129 21:06:35 -1587.679545c -4.15  -3.80
Writing to output.gpw (mode='')

iter: 130 21:13:49 -1587.679502c -3.61  -3.80
iter: 131 21:21:11 -1587.679594c -3.96  -4.09c
iter: 132 21:28:39 -1587.680068c -3.15  -4.05c
iter: 133 21:35:15 -1587.679761c -4.22  -3.75
iter: 134 21:42:46 -1587.680492c -2.89  -3.85
Writing to output.gpw (mode='')

iter: 135 21:49:56 -1587.680505c -3.87  -3.47
iter: 136 21:57:17 -1587.680155c -4.18  -3.46
iter: 137 22:03:39 -1587.680298c -4.37  -3.48
iter: 138 22:11:06 -1587.680020c -3.94  -3.49
iter: 139 22:18:09 -1587.680370c -2.83  -3.58
Writing to output.gpw (mode='')

iter: 140 22:25:12 -1587.680070c -3.90  -3.70
iter: 141 22:32:30 -1587.680112c -3.98  -3.94
iter: 142 22:38:46 -1587.680282c -3.43  -4.04c
iter: 143 22:45:57 -1587.680235c -4.52  -4.04c
iter: 144 22:53:11 -1587.680823c -3.17  -4.11c
Writing to output.gpw (mode='')

iter: 145 23:00:31 -1587.680296c -4.25  -3.52
iter: 146 23:07:53 -1587.680159c -3.47  -3.61
iter: 147 23:14:19 -1587.680266c -4.22  -3.84
iter: 148 23:20:46 -1587.680293c -4.31  -3.88
iter: 149 23:28:14 -1587.680501c -3.19  -3.95
Writing to output.gpw (mode='')

iter: 150 23:35:34 -1587.680568c -3.95  -3.99
iter: 151 23:42:54 -1587.680698c -3.87  -3.87
iter: 152 23:50:17 -1587.680634c -4.38  -3.75
iter: 153 23:56:26 -1587.680791c -3.98  -3.74
iter: 154 00:02:57 -1587.680619c -4.59  -3.65
Writing to output.gpw (mode='')

iter: 155 00:10:20 -1587.680490c -4.17  -3.68
iter: 156 00:17:43 -1587.680447c -3.90  -3.77
iter: 157 00:24:59 -1587.680481c -4.49  -3.92
iter: 158 00:32:20 -1587.680824c -3.14  -3.96
iter: 159 00:39:53 -1587.680449c -3.70  -3.70
Writing to output.gpw (mode='')

iter: 160 00:47:19 -1587.680530c -3.92  -4.19c
iter: 161 00:54:36 -1587.680632c -3.74  -4.39c
iter: 162 01:01:52 -1587.680704c -3.89  -4.23c
iter: 163 01:09:02 -1587.680747c -4.12  -4.04c
iter: 164 01:15:25 -1587.680869c -3.91  -3.93
Writing to output.gpw (mode='')

iter: 165 01:22:50 -1587.680901c -4.20  -3.77
iter: 166 01:30:09 -1587.680896c -4.38  -3.71
iter: 167 01:37:31 -1587.680941c -4.47  -3.67
iter: 168 01:44:49 -1587.680682c -4.82  -3.63
iter: 169 01:52:09 -1587.680681c -4.97  -3.69
Writing to output.gpw (mode='')

iter: 170 01:59:25 -1587.680663c -4.69  -3.70
iter: 171 02:06:38 -1587.680936c -4.09  -3.73
iter: 172 02:13:55 -1587.680679c -3.12  -3.61
iter: 173 02:21:18 -1587.680812c -3.87  -4.11c
iter: 174 02:28:36 -1587.680900c -3.95  -3.94
Writing to output.gpw (mode='')

iter: 175 02:35:58 -1587.680832c -4.47  -3.83
iter: 176 02:43:09 -1587.680633c -4.46  -3.80
iter: 177 02:50:19 -1587.680676c -3.56  -4.02c
iter: 178 02:57:20 -1587.680798c -3.61  -4.51c
iter: 179 03:04:44 -1587.680807c -4.24  -4.07c
Writing to output.gpw (mode='')

iter: 180 03:11:03 -1587.680794c -4.70  -3.98
iter: 181 03:17:43 -1587.680843c -4.52  -3.93
iter: 182 03:24:56 -1587.680811c -4.99  -3.86
iter: 183 03:32:14 -1587.681241c -3.42  -3.84
iter: 184 03:39:30 -1587.680788c -4.74  -3.54
Writing to output.gpw (mode='')

iter: 185 03:46:47 -1587.680730c -4.69  -3.63
iter: 186 03:54:08 -1587.680685c -4.26  -3.66
iter: 187 04:01:26 -1587.681099c -4.17  -3.73
iter: 188 04:08:39 -1587.680667c -3.22  -3.59
iter: 189 04:15:19 -1587.681264c -3.00  -4.11c
Writing to output.gpw (mode='')

iter: 190 04:19:37 -1587.680965c -4.07  -3.74
iter: 191 04:24:05 -1587.680734c -4.62  -3.76
iter: 192 04:31:15 -1587.680694c -3.78  -3.90
iter: 193 04:37:46 -1587.680755c -3.89  -4.46c
iter: 194 04:43:42 -1587.680765c -4.57  -4.34c
Writing to output.gpw (mode='')

iter: 195 04:51:08 -1587.680799c -4.34  -4.26c
iter: 196 04:55:38 -1587.680788c -4.93  -4.10c
iter: 197 05:00:41 -1587.680791c -5.18  -4.07c
iter: 198 05:06:27 -1587.680762c -5.66  -4.03c
iter: 199 05:11:39 -1587.680731c -4.49  -4.07c
Writing to output.gpw (mode='')

iter: 200 05:17:23 -1587.680747c -5.68  -4.31c
iter: 201 05:24:55 -1587.680811c -3.90  -4.27c
iter: 202 05:32:06 -1587.680785c -5.23  -4.05c
iter: 203 05:38:48 -1587.680788c -5.45  -4.07c
iter: 204 05:46:07 -1587.680808c -3.87  -4.07c
Writing to output.gpw (mode='')

iter: 205 05:53:22 -1587.680810c -4.82  -4.14c
iter: 206 06:00:44 -1587.680799c -5.18  -4.10c
iter: 207 06:07:50 -1587.680772c -5.67  -4.07c
iter: 208 06:15:11 -1587.680959c -3.86  -4.13c
iter: 209 06:21:01 -1587.680743c -4.73  -3.76
Writing to output.gpw (mode='')

iter: 210 06:28:18 -1587.680823c -5.60  -3.89
iter: 211 06:35:31 -1587.680781c -5.17  -3.85
iter: 212 06:42:43 -1587.680752c -4.53  -3.90
iter: 213 06:49:05 -1587.681304c -3.27  -4.01c
iter: 214 06:52:25 -1587.680854c -4.23  -3.48
Writing to output.gpw (mode='')

iter: 215 06:55:46 -1587.680768c -4.22  -3.55
iter: 216 06:59:06 -1587.680705c -3.99  -3.61
iter: 217 07:02:26 -1587.680679c -3.56  -3.73
iter: 218 07:05:46 -1587.680793c -3.40  -4.05c
iter: 219 07:10:35 -1587.680808c -4.30  -4.39c
Writing to output.gpw (mode='')

iter: 220 07:15:25 -1587.680770c -5.04  -4.26c
iter: 221 07:22:42 -1587.680775c -5.54  -4.62c
iter: 222 07:29:30 -1587.680779c -4.76  -4.64c
iter: 223 07:36:49 -1587.680782c -5.31  -4.81c
iter: 224 07:44:11 -1587.680788c -5.04  -4.75c
Writing to output.gpw (mode='')

iter: 225 07:51:19 -1587.680787c -5.60  -4.55c
iter: 226 07:58:37 -1587.680834c -4.02  -4.51c
iter: 227 08:05:29 -1587.680808c -5.30  -4.15c
iter: 228 08:12:44 -1587.680782c -4.40  -4.18c
iter: 229 08:19:53 -1587.680797c -5.37  -4.48c
Writing to output.gpw (mode='')

iter: 230 08:27:12 -1587.680798c -4.91  -4.44c
iter: 231 08:34:34 -1587.680800c -4.56  -4.45c
iter: 232 08:41:46 -1587.680846c -4.04  -4.39c
iter: 233 08:49:04 -1587.680813c -5.29  -4.14c
iter: 234 08:55:11 -1587.680818c -3.99  -4.20c
Writing to output.gpw (mode='')

iter: 235 09:02:32 -1587.680834c -4.66  -4.47c
iter: 236 09:08:19 -1587.680837c -4.83  -4.34c
iter: 237 09:12:53 -1587.680796c -4.24  -4.25c
iter: 238 09:20:19 -1587.680804c -4.85  -4.69c
iter: 239 09:26:30 -1587.680818c -4.71  -4.73c
Writing to output.gpw (mode='')

iter: 240 09:33:23 -1587.680810c -5.83  -4.48c
iter: 241 09:40:50 -1587.680811c -4.72  -4.55c
iter: 242 09:47:57 -1587.680810c -5.80  -4.88c
iter: 243 09:55:19 -1587.680810c -5.48  -4.99c
iter: 244 10:02:05 -1587.680815c -4.97  -5.00c
Writing to output.gpw (mode='')

iter: 245 10:09:35 -1587.680814c -5.60  -4.77c
iter: 246 10:16:23 -1587.680828c -4.56  -4.87c
iter: 247 10:23:40 -1587.680827c -5.60  -4.52c
iter: 248 10:30:45 -1587.680847c -4.65  -4.54c
iter: 249 10:37:39 -1587.680843c -5.66  -4.28c
Writing to output.gpw (mode='')

iter: 250 10:44:49 -1587.680837c -4.39  -4.26c
iter: 251 10:52:00 -1587.680842c -5.30  -4.90c
iter: 252 10:59:13 -1587.680844c -5.49  -5.01c
iter: 253 11:05:54 -1587.680845c -5.74  -5.03c
iter: 254 11:11:44 -1587.680855c -4.70  -5.06c
Writing to output.gpw (mode='')

iter: 255 11:18:59 -1587.680857c -5.40  -4.62c
iter: 256 11:25:35 -1587.680876c -4.57  -4.55c
iter: 257 11:32:52 -1587.680869c -5.54  -4.28c
iter: 258 11:39:42 -1587.680861c -4.62  -4.28c
iter: 259 11:46:55 -1587.680865c -5.65  -4.54c
Writing to output.gpw (mode='')

iter: 260 11:53:54 -1587.680866c -5.19  -4.55c
iter: 261 12:01:13 -1587.680874c -4.56  -4.70c
iter: 262 12:07:48 -1587.680875c -5.39  -4.98c
iter: 263 12:14:48 -1587.680879c -4.99  -5.13c
iter: 264 12:21:59 -1587.680881c -5.57  -5.21c
Writing to output.gpw (mode='')

iter: 265 12:29:23 -1587.680883c -5.32  -5.14c
iter: 266 12:36:56 -1587.680889c -4.83  -5.05c
iter: 267 12:44:28 -1587.680894c -4.95  -4.82c
iter: 268 12:51:43 -1587.680896c -5.52  -4.80c
iter: 269 12:58:59 -1587.680902c -4.82  -4.80c
Writing to output.gpw (mode='')

iter: 270 13:05:28 -1587.680907c -4.74  -4.72c
iter: 271 13:12:07 -1587.680920c -4.64  -4.70c
iter: 272 13:19:26 -1587.680919c -4.95  -4.51c
iter: 273 13:26:31 -1587.680921c -5.23  -4.60c
iter: 274 13:33:49 -1587.680925c -5.24  -4.64c
Writing to output.gpw (mode='')

iter: 275 13:41:30 -1587.680984c -4.05  -4.63c
iter: 276 13:48:57 -1587.680967c -4.74  -4.12c
iter: 277 13:56:31 -1587.680951c -4.41  -4.15c
iter: 278 14:03:42 -1587.680967c -5.28  -4.30c
iter: 279 14:11:11 -1587.680985c -3.98  -4.30c
Writing to output.gpw (mode='')

iter: 280 14:18:36 -1587.681019c -4.24  -4.52c
iter: 281 14:25:08 -1587.681015c -4.81  -4.35c
iter: 282 14:32:22 -1587.681019c -5.17  -4.34c
iter: 283 14:39:51 -1587.681006c -4.37  -4.31c
iter: 284 14:47:09 -1587.681016c -4.92  -4.44c
Writing to output.gpw (mode='')

iter: 285 14:54:16 -1587.681054c -4.02  -4.40c
iter: 286 15:01:33 -1587.681045c -5.08  -4.41c
iter: 287 15:09:09 -1587.681065c -4.88  -4.43c
iter: 288 15:16:12 -1587.681067c -5.21  -4.33c
iter: 289 15:21:03 -1587.681059c -4.16  -4.31c
Writing to output.gpw (mode='')

iter: 290 15:26:45 -1587.681071c -4.67  -4.70c
iter: 291 15:33:49 -1587.681079c -4.85  -4.77c
iter: 292 15:41:29 -1587.681085c -4.78  -4.79c
iter: 293 15:48:32 -1587.681091c -5.07  -4.78c
iter: 294 15:55:34 -1587.681096c -5.06  -4.78c
Writing to output.gpw (mode='')

iter: 295 15:59:52 -1587.681135c -4.10  -4.73c
iter: 296 16:04:21 -1587.681134c -4.60  -4.37c
iter: 297 16:11:45 -1587.681136c -4.80  -4.39c
iter: 298 16:19:04 -1587.681142c -4.71  -4.42c
iter: 299 16:25:06 -1587.681169c -4.06  -4.44c
Writing to output.gpw (mode='')

iter: 300 16:32:20 -1587.681256c -3.73  -4.54c
iter: 301 16:39:58 -1587.681281c -4.14  -4.18c
iter: 302 16:47:22 -1587.681261c -4.52  -4.16c
iter: 303 16:54:44 -1587.681278c -4.37  -4.23c
iter: 304 17:02:13 -1587.681332c -4.32  -4.27c
Writing to output.gpw (mode='')

iter: 305 17:09:08 -1587.681423c -3.63  -4.15c
iter: 306 17:15:24 -1587.681373c -4.52  -4.06c
iter: 307 17:22:47 -1587.681372c -4.03  -4.13c
iter: 308 17:30:02 -1587.681404c -4.31  -4.32c
iter: 309 17:37:24 -1587.681823c -3.14  -4.31c
Writing to output.gpw (mode='')

iter: 310 17:44:41 -1587.681965c -3.92  -3.73
iter: 311 17:50:53 -1587.681681c -4.44  -3.67
iter: 312 17:55:22 -1587.681709c -4.62  -3.67
iter: 313 18:02:44 -1587.681603c -3.95  -3.67
iter: 314 18:10:12 -1587.681717c -2.82  -3.70
Writing to output.gpw (mode='')

iter: 315 18:17:22 -1587.681638c -4.11  -3.96
iter: 316 18:24:11 -1587.683067c -2.56  -4.06c
iter: 317 18:31:21 -1587.682778c -3.50  -3.53
iter: 318 18:38:36 -1587.682210c -4.24  -3.49
iter: 319 18:46:06 -1587.683858c -2.96  -3.49
Writing to output.gpw (mode='')

iter: 320 18:52:42 -1587.681815c -3.61  -3.35
iter: 321 19:00:07 -1587.681200c -2.71  -3.43
iter: 322 19:07:25 -1587.681490c -3.20  -3.74
iter: 323 19:14:41 -1587.681866c -3.02  -3.97
iter: 324 19:21:01 -1587.681981c -3.71  -4.25c
Writing to output.gpw (mode='')

iter: 325 19:24:26 -1587.681961c -4.12  -4.17c
iter: 326 19:31:45 -1587.681971c -3.98  -4.22c
iter: 327 19:39:13 -1587.682004c -4.25  -4.26c
iter: 328 19:46:33 -1587.682104c -3.92  -4.22c
iter: 329 19:52:12 -1587.682082c -3.84  -4.11c
Writing to output.gpw (mode='')

iter: 330 19:59:35 -1587.682124c -4.19  -4.13c
iter: 331 20:06:36 -1587.682135c -4.36  -4.07c
iter: 332 20:13:56 -1587.682229c -3.42  -4.05c
iter: 333 20:21:13 -1587.682391c -3.47  -4.35c
iter: 334 20:28:20 -1587.682357c -4.32  -4.14c
Writing to output.gpw (mode='')

iter: 335 20:31:41 -1587.682619c -3.37  -4.13c
iter: 336 20:38:42 -1587.682602c -3.97  -3.85
iter: 337 20:45:59 -1587.682481c -3.67  -3.82
iter: 338 20:53:27 -1587.682555c -4.44  -3.89
iter: 339 21:00:48 -1587.682980c -3.27  -3.89
Writing to output.gpw (mode='')

iter: 340 21:04:13 -1587.682806c -3.68  -3.73
iter: 341 21:07:35 -1587.682884c -4.38  -3.79
iter: 342 21:14:39 -1587.683705c -2.68  -3.78
iter: 343 21:21:38 -1587.683815c -3.73  -3.63
iter: 344 21:26:32 -1587.683208c -3.62  -3.60
Writing to output.gpw (mode='')

iter: 345 21:30:12 -1587.683624c -4.05  -3.69
iter: 346 21:34:30 -1587.683975c -2.59  -3.65
iter: 347 21:38:58 -1587.684648c -3.09  -3.91
iter: 348 21:46:20 -1587.684042c -3.51  -3.74
iter: 349 21:53:30 -1587.683959c -3.51  -3.82
Writing to output.gpw (mode='')

iter: 350 21:57:08 -1587.684125c -3.31  -3.97
iter: 351 22:04:17 -1587.684349c -3.32  -4.17c
iter: 352 22:11:40 -1587.684399c -3.96  -4.08c
iter: 353 22:19:01 -1587.684555c -3.67  -4.04c
iter: 354 22:24:47 -1587.684567c -3.91  -3.92
Writing to output.gpw (mode='')

iter: 355 22:28:29 -1587.684524c -3.86  -3.88
iter: 356 22:35:09 -1587.684689c -3.96  -3.89
iter: 357 22:42:14 -1587.684591c -3.27  -3.82
iter: 358 22:49:22 -1587.685199c -2.75  -3.99
iter: 359 22:56:21 -1587.685800c -3.09  -3.86
Writing to output.gpw (mode='')

iter: 360 23:03:46 -1587.685340c -3.97  -3.69
iter: 361 23:11:13 -1587.687612c -2.25  -3.70
iter: 362 23:17:12 -1587.687532c -3.23  -3.49
iter: 363 23:24:28 -1587.691332c -2.44  -3.44
iter: 364 23:31:42 -1587.694049c -2.41  -3.25
Writing to output.gpw (mode='')

iter: 365 23:39:05 -1587.686005c -3.23  -3.14
iter: 366 23:45:30 -1587.688994c -3.62  -3.22
iter: 367 23:52:53 -1587.686108c -2.76  -3.19
iter: 368 23:59:18 -1587.686328c -3.39  -3.27
iter: 369 00:03:27 -1587.696664c -1.52  -3.31
Writing to output.gpw (mode='')

iter: 370 00:11:05 -1587.685544c -2.81  -3.08
iter: 371 00:18:20 -1587.684617c -2.50  -3.21
iter: 372 00:24:19 -1587.685717c -2.73  -3.34
iter: 373 00:31:39 -1587.686929c -3.38  -3.45
iter: 374 00:39:10 -1587.687493c -3.51  -3.51
Writing to output.gpw (mode='')

iter: 375 00:46:26 -1587.688446c -2.28  -3.57
iter: 376 00:49:47 -1587.688602c -3.27  -3.86
iter: 377 00:54:29 -1587.688716c -3.53  -3.80
iter: 378 01:01:51 -1587.690149c -2.68  -3.77
iter: 379 01:09:13 -1587.691114c -2.92  -3.52
Writing to output.gpw (mode='')

iter: 380 01:15:58 -1587.690765c -3.09  -3.41
iter: 381 01:21:24 -1587.689191c -2.33  -3.35
iter: 382 01:24:44 -1587.689713c -3.23  -3.71
iter: 383 01:28:04 -1587.690034c -3.43  -3.74
iter: 384 01:31:25 -1587.690156c -3.74  -3.80
Writing to output.gpw (mode='')

iter: 385 01:37:03 -1587.691724c -2.58  -3.73
iter: 386 01:44:08 -1587.690276c -2.88  -3.50
iter: 387 01:51:04 -1587.693760c -1.97  -3.72
iter: 388 01:56:30 -1587.691062c -3.26  -3.47
iter: 389 02:03:31 -1587.692656c -3.11  -3.62
Writing to output.gpw (mode='')

iter: 390 02:10:21 -1587.698212c -2.07  -3.50
iter: 391 02:16:50 -1587.700334c -2.65  -3.13
iter: 392 02:23:58 -1587.697272c -3.36  -3.06
iter: 393 02:31:14 -1587.691480c -2.34  -3.05
iter: 394 02:38:31 -1587.696002c -3.26  -3.24
Writing to output.gpw (mode='')

iter: 395 02:45:38 -1587.809823c -0.94  -3.20
iter: 396 02:52:57 -1587.737126c -2.06  -2.41
iter: 397 02:59:52 -1587.688444c -1.90  -2.43
iter: 398 03:07:05 -1587.655310c -1.37  -2.48
iter: 399 03:13:58 -1587.660063c -0.98  -2.59
Writing to output.gpw (mode='')

iter: 400 03:21:24 -1587.718917c -0.74  -2.88
iter: 401 03:28:40 -1587.718095c -1.87  -2.98
iter: 402 03:35:57 -1587.692299c -2.28  -2.89
iter: 403 03:43:09 -1587.693630c -1.79  -3.17
iter: 404 03:50:11 -1587.700127c -1.89  -3.55
Writing to output.gpw (mode='')

iter: 405 03:57:42 -1587.703239c -2.25  -3.65
iter: 406 04:05:00 -1587.703907c -2.63  -3.47
iter: 407 04:12:05 -1587.705398c -2.92  -3.31
iter: 408 04:19:38 -1587.712163c -2.30  -3.24
iter: 409 04:26:22 -1587.735082c -1.59  -3.08
Writing to output.gpw (mode='')

iter: 410 04:33:50 -1587.740153c -1.97  -2.83
iter: 411 04:40:08 -1587.709395c -3.21  -2.76
iter: 412 04:47:41 -1587.721222c -2.67  -2.80
iter: 413 04:55:06 -1587.719936c -3.07  -2.76
iter: 414 05:02:29 -1587.695969c -2.02  -2.75
Writing to output.gpw (mode='')

iter: 415 05:09:58 -1587.803551c -1.12  -2.90
iter: 416 05:17:19 -1587.671433c -1.89  -2.53
iter: 417 05:24:48 -1587.686380c -2.54  -2.66
iter: 418 05:32:05 -1587.694810c -2.80  -2.69
iter: 419 05:39:18 -1587.699819c -2.88  -2.71
Writing to output.gpw (mode='')

iter: 420 05:46:36 -1587.709628c -2.38  -2.74
iter: 421 05:53:56 -1587.809175c -1.21  -2.75
iter: 422 06:01:24 -1587.677665c -1.97  -2.51
iter: 423 06:08:44 -1587.753008c -2.63  -2.61
iter: 424 06:15:59 -1587.812707c -0.47  -2.56
Writing to output.gpw (mode='')

iter: 425 06:23:36 -1587.748626c -1.77  -2.55
iter: 426 06:31:10 -1587.873038c -1.13  -2.56
iter: 427 06:38:35 -1587.835121c -1.73  -2.44
iter: 428 06:45:58 -1587.686930  -1.72  -2.41
iter: 429 06:53:28 -1587.824109c -0.13  -2.51
Writing to output.gpw (mode='')

iter: 430 07:01:01 -1587.782244c -1.57  -2.72
iter: 431 07:08:26 -1587.745109c -0.56  -2.66
iter: 432 07:15:46 -1587.725883c -1.98  -3.01
iter: 433 07:23:09 -1587.740451c -1.18  -3.02
iter: 434 07:30:33 -1587.730634c -2.30  -3.07
Writing to output.gpw (mode='')

iter: 435 07:37:55 -1587.707768c -2.40  -3.03
iter: 436 07:45:10 -1587.709947c -2.63  -3.36
iter: 437 07:52:35 -1587.712225c -2.77  -3.52
iter: 438 07:59:51 -1587.714113c -3.13  -3.69
iter: 439 08:07:12 -1587.717416c -2.12  -3.72
Writing to output.gpw (mode='')

iter: 440 08:14:47 -1587.719136c -2.55  -3.51
iter: 441 08:22:17 -1587.718998c -3.01  -3.38
iter: 442 08:29:37 -1587.721940c -2.65  -3.31
iter: 443 08:37:06 -1587.721054c -3.08  -3.20
iter: 444 08:44:30 -1587.724190c -2.66  -3.17
Writing to output.gpw (mode='')

iter: 445 08:51:54 -1587.722291c -3.22  -3.09
iter: 446 08:59:13 -1587.719932c -2.93  -3.08
iter: 447 09:06:33 -1587.721168c -3.48  -3.09
iter: 448 09:13:52 -1587.719370c -1.95  -3.08
iter: 449 09:21:12 -1587.723419c -2.19  -3.35
Writing to output.gpw (mode='')

iter: 450 09:28:45 -1587.724354c -2.53  -3.34
iter: 451 09:36:18 -1587.733540c -1.96  -3.29
iter: 452 09:43:49 -1587.723908c -2.97  -3.08
iter: 453 09:51:21 -1587.720913c -2.05  -3.14
iter: 454 09:58:40 -1587.723907c -3.21  -3.45
Writing to output.gpw (mode='')

iter: 455 10:06:01 -1587.724126c -3.19  -3.42
iter: 456 10:13:23 -1587.742793c -1.50  -3.43
iter: 457 10:20:41 -1587.730055c -2.76  -2.88
iter: 458 10:27:51 -1587.725318c -2.59  -2.91
iter: 459 10:35:21 -1587.723906c -1.63  -2.97
Writing to output.gpw (mode='')

iter: 460 10:42:51 -1587.727062c -2.74  -3.38
iter: 461 10:50:10 -1587.729220c -3.03  -3.44
iter: 462 10:57:26 -1587.729934c -3.16  -3.47
iter: 463 11:04:43 -1587.729356c -2.55  -3.45
iter: 464 11:12:04 -1587.730382c -2.53  -3.65
Writing to output.gpw (mode='')

iter: 465 11:19:25 -1587.731348c -2.71  -3.81
iter: 466 11:27:03 -1587.732115c -2.88  -3.77
iter: 467 11:34:29 -1587.737930c -2.06  -3.66
iter: 468 11:41:48 -1587.738979c -2.87  -3.16
iter: 469 11:49:10 -1587.735156c -3.01  -3.12
Writing to output.gpw (mode='')

iter: 470 11:56:23 -1587.739576c -2.78  -3.14
iter: 471 12:03:40 -1587.735441c -2.71  -3.08
iter: 472 12:11:08 -1587.733773c -2.10  -3.12
iter: 473 12:18:27 -1587.755109c -1.26  -3.36
iter: 474 12:25:49 -1587.733400c -2.52  -2.97
Writing to output.gpw (mode='')

iter: 475 12:33:17 -1587.734236c -1.65  -3.12
iter: 476 12:40:46 -1587.753951c -1.30  -3.53
iter: 477 12:48:06 -1587.762312c -1.80  -3.10
iter: 478 12:55:37 -1587.761860c -2.27  -2.94
iter: 479 13:02:56 -1587.759122c -2.60  -2.89
Writing to output.gpw (mode='')

iter: 480 13:10:19 -1587.758515c -2.86  -2.84
iter: 481 13:17:42 -1587.829457c -1.19  -2.82
iter: 482 13:24:58 -1587.784332c -2.48  -2.56
iter: 483 13:32:27 -1587.782312c -2.72  -2.57
iter: 484 13:39:53 -1587.811412c -2.03  -2.56
Writing to output.gpw (mode='')

iter: 485 13:47:10 -1587.812200c -2.12  -2.51
iter: 486 13:54:38 -1587.785071c -0.61  -2.49
iter: 487 14:02:07 -1587.783457c -1.65  -2.81
iter: 488 14:09:16 -1587.766606c -2.16  -2.78
iter: 489 14:16:39 -1587.733784c -1.21  -2.77
Writing to output.gpw (mode='')

iter: 490 14:24:13 -1587.745847c -1.91  -3.23
iter: 491 14:31:47 -1587.751621c -2.11  -3.30
iter: 492 14:39:13 -1587.891731c -0.57  -3.34
iter: 493 14:46:30 -1587.792030c -2.31  -2.58
iter: 494 14:53:58 -1588.183602  -0.31  -2.61
Writing to output.gpw (mode='')

iter: 495 15:01:21 -1587.830825  -2.02  -2.22
iter: 496 15:08:50 -1588.090491  -1.23  -2.26
iter: 497 15:16:07 -1587.673364  -1.38  -2.19
iter: 498 15:23:38 -1587.572497  -0.87  -2.28
iter: 499 15:30:56 -1587.973043  +0.20  -2.39
Writing to output.gpw (mode='')

iter: 500 15:38:22 -1587.936113  -0.97  -2.54
iter: 501 15:45:56 -1587.752016  -0.41  -2.44
iter: 502 15:53:13 -1587.809039  -1.06  -3.25
iter: 503 16:00:45 -1587.807797c -1.67  -2.97
iter: 504 16:08:08 -1587.764927c -2.66  -2.83
Writing to output.gpw (mode='')

iter: 505 16:15:33 -1587.750530c -1.86  -2.93
iter: 506 16:22:46 -1587.762919c -3.02  -3.12
iter: 507 16:30:03 -1587.765726c -2.92  -3.09
iter: 508 16:37:32 -1587.759090c -2.36  -3.06
iter: 509 16:44:59 -1587.835351c -0.73  -3.22
Writing to output.gpw (mode='')

iter: 510 16:52:19 -1587.746975c -1.89  -2.65
iter: 511 16:59:41 -1587.739984c -1.45  -2.79
iter: 512 17:06:56 -1587.751166c -1.64  -2.97
iter: 513 17:14:27 -1587.762022c -1.58  -3.15
iter: 514 17:22:04 -1587.807098c -1.00  -3.46
Writing to output.gpw (mode='')

iter: 515 17:29:34 -1587.780915c -2.53  -2.93
iter: 516 17:37:08 -1587.772521c -2.59  -2.98
iter: 517 17:44:40 -1587.784713c -2.34  -3.02
iter: 518 17:51:57 -1587.782307c -2.74  -2.94
iter: 519 17:59:31 -1587.770793c -1.76  -2.93
Writing to output.gpw (mode='')

iter: 520 18:06:54 -1587.811990c -0.90  -3.21
iter: 521 18:14:20 -1587.794355c -2.33  -2.96
iter: 522 18:21:49 -1587.815036c -1.83  -2.94
iter: 523 18:29:10 -1587.844139c -1.40  -2.83
iter: 524 18:36:34 -1587.959223c -0.78  -2.67
Writing to output.gpw (mode='')

iter: 525 18:43:58 -1587.911782c -1.74  -2.40
iter: 526 18:51:13 -1587.926177c -1.90  -2.37
iter: 527 18:58:31 -1587.864665c -2.28  -2.35
iter: 528 19:05:46 -1587.851938c -2.50  -2.36
iter: 529 19:13:16 -1588.211222  -0.62  -2.36
Writing to output.gpw (mode='')

iter: 530 19:20:44 -1587.547113  -0.71  -2.14
iter: 531 19:28:11 -1587.592876  -1.13  -2.33
iter: 532 19:35:32 -1587.728843  +0.03  -2.39
iter: 533 19:42:50 -1587.806402  -0.96  -3.02
iter: 534 19:50:23 -1587.962781  -0.66  -2.92
Writing to output.gpw (mode='')

iter: 535 19:57:45 -1588.265901  -0.43  -2.64
iter: 536 20:05:09 -1588.419310  -0.57  -2.39
iter: 537 20:12:31 -1588.492144  -0.73  -2.27
iter: 538 20:19:50 -1587.886486  -2.40  -2.19
iter: 539 20:27:22 -1588.279734  -0.90  -2.23
Writing to output.gpw (mode='')

iter: 540 20:34:51 -1587.571271  -0.54  -2.13
iter: 541 20:42:20 -1587.681197  -0.03  -2.38
iter: 542 20:49:41 -1587.881363  -0.45  -2.84
iter: 543 20:57:10 -1587.892779  -1.19  -2.79
iter: 544 21:04:40 -1587.898740c -0.64  -2.66
Writing to output.gpw (mode='')

iter: 545 21:12:15 -1587.803864c -1.96  -2.78
iter: 546 21:19:45 -1588.219439  +0.02  -2.88
iter: 547 21:27:04 -1587.782710  -1.39  -2.31
iter: 548 21:34:32 -1587.689954  -0.56  -2.39
iter: 549 21:41:53 -1587.780162c -0.61  -2.70
Writing to output.gpw (mode='')

iter: 550 21:49:20 -1587.814767c -2.54  -2.94
iter: 551 21:56:49 -1589.671477  +0.40  -2.90
iter: 552 22:04:08 -1589.568967  -0.79  -1.82
iter: 553 22:11:25 -1588.006041  -1.11  -1.81
iter: 554 22:18:54 -1587.668549  -0.96  -1.84
Writing to output.gpw (mode='')

iter: 555 22:26:07 -1587.147846  +0.54  -1.87
iter: 556 22:33:22 -1587.578947  -0.26  -2.45
iter: 557 22:40:50 -1587.969900  -0.78  -2.83
iter: 558 22:48:10 -1587.745147  -1.29  -2.44
iter: 559 22:55:43 -1587.747036  -1.38  -2.53
Writing to output.gpw (mode='')

iter: 560 23:03:05 -1588.048111  -0.04  -2.59
iter: 561 23:10:29 -1587.925321  -1.35  -2.47
iter: 562 23:17:48 -1588.083989c -0.89  -2.45
iter: 563 23:25:12 -1590.866349  +0.60  -2.35
iter: 564 23:32:48 -1588.965501  -0.70  -1.75
Writing to output.gpw (mode='')

iter: 565 23:40:10 -1587.132450  -0.13  -1.76
iter: 566 23:47:26 -1588.945063  +1.07  -1.87
iter: 567 23:54:46 -1587.586861  -0.27  -2.21
iter: 568 00:02:13 -1587.808126  -1.45  -2.54
iter: 569 00:09:38 -1588.717635  +0.05  -2.55
Writing to output.gpw (mode='')

iter: 570 00:17:04 -1587.628644  -0.84  -2.16
iter: 571 00:24:23 -1595.792191  +1.24  -2.35
iter: 572 00:31:54 -1595.067104  +0.15  -1.60
iter: 573 00:39:12 -1598.841306  +0.39  -1.56
iter: 574 00:46:27 -1589.036045  -0.94  -1.50
Writing to output.gpw (mode='')

iter: 575 00:53:59 -1588.502898  -1.04  -1.54
iter: 576 01:01:08 -1595.932113  +1.62  -1.56
iter: 577 01:08:25 -1601.774502  +0.77  -1.64
iter: 578 01:15:51 -1601.579555  +0.42  -1.55
iter: 579 01:23:15 -1592.272263  -0.53  -1.50
Writing to output.gpw (mode='')

iter: 580 01:30:36 -1584.490796  +0.37  -1.51
iter: 581 01:38:24 -1641.907187  +1.96  -1.62
iter: 582 01:45:50 -1646.357126  +1.13  -1.16
iter: 583 01:53:28 -1602.549073  +0.17  -1.12
iter: 584 02:01:08 -1613.246420  +0.14  -1.15
Writing to output.gpw (mode='')

iter: 585 02:08:45 -1576.375669  +0.87  -1.14
iter: 586 02:16:15 -1914.664253  +2.27  -1.24
iter: 587 02:23:34 -1986.674967  +1.71  -0.71
iter: 588 02:31:06 -1910.689234  +1.29  -0.68
iter: 589 02:38:24 -1884.968159  +1.04  -0.67
Writing to output.gpw (mode='')

iter: 590 02:45:55 -1587.275473  +0.66  -0.66
iter: 591 02:53:33 -5053.827266  +2.51  -0.70
iter: 592 03:01:00 -3353.917593  +2.31  -0.28
iter: 593 03:08:13 -2827.207382  +1.97  -0.29
iter: 594 03:15:51 -2909.414484  +1.65  -0.29
Writing to output.gpw (mode='')

iter: 595 03:23:26   262.643840  +1.91  -0.29
iter: 596 03:30:46 -10809.503660  +3.60  -0.36
iter: 597 03:37:58 -17577.031374  +3.54  -0.11
iter: 598 03:45:08 -13326.848364  +2.89  -0.09
iter: 599 03:52:24 -10235.039617  +2.45  -0.08
Writing to output.gpw (mode='')

iter: 600 03:59:55 -3097.867676  +2.19  -0.08
iter: 601 04:07:19  3261.671212  +3.09  -0.12
iter: 602 04:14:49 -12380.339927  +3.62  -0.33
iter: 603 04:22:14 -10913.468311  +3.00  -0.21
iter: 604 04:29:35 -2787.794265  +2.38  -0.22
Writing to output.gpw (mode='')

iter: 605 04:37:01   705.260108  +3.09  -0.29
iter: 606 04:44:34 -2683.579099  +3.42  -0.47
iter: 607 04:52:00 -3322.146334  +2.67  -0.55
iter: 608 04:59:18 -2212.178577  +1.96  -0.57
iter: 609 05:06:42 -1961.371681  +2.74  -0.58
Writing to output.gpw (mode='')

iter: 610 05:14:02 -2075.516841  +2.20  -0.57
iter: 611 05:21:36 -1928.517882  +1.77  -0.59
iter: 612 05:28:56 -2234.161436  +2.45  -0.62
iter: 613 05:36:29 -2432.299400  +2.07  -0.60
iter: 614 05:43:45 -2852.472721  +2.24  -0.60
Writing to output.gpw (mode='')

iter: 615 05:51:12 -2284.811933  +1.25  -0.57
iter: 616 05:58:45 -2677.251658  +2.85  -0.58
iter: 617 06:06:15 -4596.450127  +2.79  -0.53
iter: 618 06:13:27 -1868.313788  +2.00  -0.34
iter: 619 06:21:02 -1600.057990  +1.36  -0.44
Writing to output.gpw (mode='')

iter: 620 06:28:28 -1136.976945  +1.54  -0.45
iter: 621 06:36:05 -3454.424553  +3.13  -0.46
iter: 622 06:43:35 -1635.468938  +2.40  -0.37
iter: 623 06:51:20  -679.728643  +2.99  -0.44
iter: 624 06:58:52 -1098.828590  +2.73  -0.57
Writing to output.gpw (mode='')

iter: 625 07:06:10 -1329.936537  +2.36  -0.64
iter: 626 07:13:34 -1500.983798  +2.32  -0.76
iter: 627 07:21:00 -1533.831217  +1.64  -0.91
iter: 628 07:28:28 -1594.266962  +2.31  -0.95
iter: 629 07:36:11 -1892.858600  +2.59  -1.08
Writing to output.gpw (mode='')

iter: 630 07:43:44 -1911.305930  +1.90  -0.74
iter: 631 07:51:16 -1759.088671  +1.51  -0.71
iter: 632 07:58:35 -1789.240846  +1.17  -0.69
iter: 633 08:05:58 -1855.612843  +1.18  -0.67
iter: 634 08:13:23 -1757.746729  +0.87  -0.65
Writing to output.gpw (mode='')

iter: 635 08:20:44 -2341.862607  +2.47  -0.64
iter: 636 08:28:11 -2496.446484  +2.16  -0.58
iter: 637 08:35:35 -2544.626253  +1.82  -0.58
iter: 638 08:42:53 -1694.896878  +1.40  -0.57
iter: 639 08:50:23 -1997.803714  +2.68  -0.62
Writing to output.gpw (mode='')

iter: 640 08:57:53 -2333.654297  +2.00  -0.65
iter: 641 09:05:22 -2202.643003  +1.59  -0.66
iter: 642 09:12:51 -1493.909592  +1.74  -0.68
iter: 643 09:20:17 -1451.457731  +1.64  -0.86
iter: 644 09:27:44 -1874.968830  +2.91  -0.90
Writing to output.gpw (mode='')

iter: 645 09:35:03 -1880.752867  +1.82  -0.71
iter: 646 09:42:24 -1765.732488  +1.38  -0.71
iter: 647 09:49:43 -1533.131602  +1.28  -0.72
iter: 648 09:57:04 -1539.586840  +2.64  -0.77
iter: 649 10:04:21 -1843.683520  +2.55  -0.93
Writing to output.gpw (mode='')

iter: 650 10:11:48 -1935.868858  +2.00  -0.80
iter: 651 10:19:05 -1815.808811  +1.39  -0.76
iter: 652 10:26:28 -1512.669027  +1.60  -0.77
iter: 653 10:33:49 -1655.088903  +2.90  -0.89
iter: 654 10:41:15 -1738.708461  +1.96  -0.83
Writing to output.gpw (mode='')

iter: 655 10:48:35 -1621.889734  +1.24  -0.82
iter: 656 10:56:04 -1695.097507  +2.41  -0.84
iter: 657 11:03:28 -1790.433076  +1.87  -0.79
iter: 658 11:10:59 -2056.906588  +2.25  -0.78
iter: 659 11:18:19 -2292.209014  +2.16  -0.73
Writing to output.gpw (mode='')

iter: 660 11:25:35 -1793.157388  +1.00  -0.68
iter: 661 11:32:59 -2357.378734  +2.59  -0.71
iter: 662 11:40:13 -2186.639841  +1.94  -0.58
iter: 663 11:47:40 -1997.197238  +1.65  -0.59
iter: 664 11:55:02 -1900.613768  +1.63  -0.60
Writing to output.gpw (mode='')

iter: 665 12:02:16 -1344.432841  +2.30  -0.61
iter: 666 12:09:35 -1548.215375  +2.94  -0.78
iter: 667 12:16:56 -1621.155457  +1.94  -0.82
iter: 668 12:24:25 -1549.875419  +1.55  -0.86
iter: 669 12:31:53 -1621.344797  +2.34  -0.91
Writing to output.gpw (mode='')

iter: 670 12:39:24 -1648.776924  +1.56  -0.83
iter: 671 12:46:51 -1685.214823  +1.55  -0.83
iter: 672 12:54:17 -1863.923683  +2.22  -0.83
iter: 673 13:01:58 -1628.561828  +1.38  -0.76
iter: 674 13:09:30 -2755.994424  +2.48  -0.78
Writing to output.gpw (mode='')

iter: 675 13:16:55 -2346.488932  +2.13  -0.51
iter: 676 13:24:19 -2097.499867  +1.90  -0.51
iter: 677 13:31:36 -2103.160598  +1.34  -0.61
iter: 678 13:38:56 -1706.611357  +1.46  -0.61
iter: 679 13:46:27 -2940.750990  +2.83  -0.63
Writing to output.gpw (mode='')

iter: 680 13:53:58 -1251.159075  +2.16  -0.38
iter: 681 14:01:17  -881.333990  +1.87  -0.48
iter: 682 14:08:39  -371.431379  +2.69  -0.53
iter: 683 14:15:59  -837.213439  +2.54  -0.62
iter: 684 14:23:18 -1389.867813  +2.52  -0.71
Writing to output.gpw (mode='')

iter: 685 14:30:30 -1551.878361  +2.06  -0.93
iter: 686 14:37:46 -1635.086995  +2.10  -1.02
iter: 687 14:44:56 -1683.932908  +1.93  -0.99
iter: 688 14:52:28 -1620.648342  +0.95  -0.95
iter: 689 14:59:53 -1543.167286  +2.10  -0.95
Writing to output.gpw (mode='')

iter: 690 15:07:32 -1636.120345  +2.31  -1.13
iter: 691 15:14:51 -1640.314401  +1.63  -1.05
iter: 692 15:22:17 -1564.803339  +1.76  -1.02
iter: 693 15:29:57 -1576.247987  +1.14  -1.23
iter: 694 15:37:17 -1571.384151  +1.01  -1.25
Writing to output.gpw (mode='')

iter: 695 15:44:49 -1749.349987  +2.43  -1.32
iter: 696 15:52:03 -1656.561573  +1.29  -0.91
iter: 697 15:59:20 -2226.094023  +2.52  -0.91
iter: 698 16:06:47 -2382.093032  +1.96  -0.64
iter: 699 16:14:15 -2133.261829  +1.29  -0.61
Writing to output.gpw (mode='')

iter: 700 16:21:42 -1504.810891  +1.18  -0.61
iter: 701 16:29:04 -1349.621297  +2.72  -0.66
iter: 702 16:36:25 -2955.537712  +2.90  -0.86
iter: 703 16:43:49 -2975.835407  +2.17  -0.46
iter: 704 16:51:03 -2952.885779  +1.85  -0.44
Writing to output.gpw (mode='')

iter: 705 16:58:20 -1771.880383  +1.69  -0.43
iter: 706 17:05:46 -1357.900903  +1.61  -0.49
iter: 707 17:13:21 -3236.396349  +3.22  -0.51
iter: 708 17:20:36 -2506.200396  +2.46  -0.36
iter: 709 17:28:03 -1310.203088  +2.12  -0.37
Writing to output.gpw (mode='')

iter: 710 17:35:29 -1268.817882  +1.72  -0.47
iter: 711 17:43:03  -624.070765  +2.66  -0.48
iter: 712 17:50:26 -1580.082720  +3.38  -0.58
iter: 713 17:57:54 -1900.855100  +2.58  -0.65
iter: 714 18:05:21 -1689.306061  +1.83  -0.70
Writing to output.gpw (mode='')

iter: 715 18:12:50 -1534.791631  +2.62  -0.77
iter: 716 18:20:15 -1594.284589  +1.83  -0.86
iter: 717 18:27:39 -1622.565990  +1.62  -0.87
iter: 718 18:35:10 -1612.023488  +1.66  -0.87
iter: 719 18:42:39 -1563.909330  +2.30  -0.89
Writing to output.gpw (mode='')

iter: 720 18:50:10 -1573.436186  +1.40  -1.05
iter: 721 18:57:27 -1552.072575  +1.36  -1.09
iter: 722 19:04:54 -1587.494499  +1.79  -1.20
iter: 723 19:12:22 -1573.318590  +1.01  -1.19
iter: 724 19:19:44 -1621.814019  +2.04  -1.23
Writing to output.gpw (mode='')

iter: 725 19:27:20 -1587.957563  +1.10  -1.06
iter: 726 19:34:39 -1563.319060  +1.16  -1.09
iter: 727 19:41:54 -1571.759528  +0.85  -1.17
iter: 728 19:49:21 -1589.320628  +0.79  -1.18
iter: 729 19:56:41 -1559.144355  +1.69  -1.16
Writing to output.gpw (mode='')

iter: 730 20:04:08 -1620.301813  +2.32  -1.22
iter: 731 20:11:27 -1598.124836  +0.89  -1.24
iter: 732 20:18:49 -1575.165676  +1.06  -1.24
iter: 733 20:26:22 -1578.558844  +0.71  -1.30
iter: 734 20:33:46 -1674.350200  +2.27  -1.34
Writing to output.gpw (mode='')

iter: 735 20:41:10 -1691.445448  +1.39  -0.96
iter: 736 20:48:27 -1592.768253  +0.75  -0.93
iter: 737 20:55:39 -1736.799966  +1.57  -0.96
iter: 738 21:03:02 -1805.073376  +1.48  -0.86
iter: 739 21:10:13 -1931.300402  +2.41  -0.82
Writing to output.gpw (mode='')

iter: 740 21:17:43 -1877.927180  +1.81  -0.72
iter: 741 21:24:55 -1718.346779  +1.34  -0.71
iter: 742 21:32:29 -1416.167186  +2.09  -0.71
iter: 743 21:40:05 -1415.383507  +1.99  -0.89
iter: 744 21:47:43 -1678.813940  +2.80  -0.98
Writing to output.gpw (mode='')

iter: 745 21:55:16 -1723.971336  +1.87  -0.81
iter: 746 22:02:43 -1668.302013  +1.43  -0.80
iter: 747 22:10:10 -1537.073079  +1.34  -0.82
iter: 748 22:17:32 -1513.643385  +1.35  -0.89
iter: 749 22:24:53 -1735.003631  +2.46  -0.93
Writing to output.gpw (mode='')

iter: 750 22:32:21 -1715.275093  +1.66  -0.80
iter: 751 22:39:46 -1675.188681  +1.18  -0.80
iter: 752 22:47:12 -1607.328180  +0.92  -0.81
iter: 753 22:54:41 -1494.874572  +1.69  -0.82
iter: 754 23:02:09 -1648.144801  +2.60  -0.87
Writing to output.gpw (mode='')

iter: 755 23:09:49 -1674.067921  +1.79  -0.87
iter: 756 23:17:23 -1628.351289  +1.37  -0.89
iter: 757 23:24:57 -1562.905282  +1.05  -0.93
iter: 758 23:32:24 -1534.378920  +1.36  -0.97
iter: 759 23:39:48 -1688.505579  +2.32  -1.02
Writing to output.gpw (mode='')

iter: 760 23:47:13 -1658.984804  +1.49  -0.83
iter: 761 23:54:37 -1574.290817  +1.05  -0.84
iter: 762 00:01:54 -1531.903249  +1.23  -0.88
iter: 763 00:09:14 -1527.628980  +2.13  -0.91
iter: 764 00:16:31 -1682.792385  +2.58  -1.13
Writing to output.gpw (mode='')

iter: 765 00:24:04 -1722.824194  +1.83  -0.94
iter: 766 00:31:19 -1665.257298  +1.29  -0.89
iter: 767 00:38:39 -1514.883227  +1.79  -0.87
iter: 768 00:46:05 -1513.336491  +1.42  -1.04
iter: 769 00:53:49 -1645.890958  +2.35  -1.12
Writing to output.gpw (mode='')

iter: 770 01:01:13 -1690.569748  +1.71  -0.95
iter: 771 01:08:30 -1728.076751  +1.54  -0.91
iter: 772 01:15:42 -1728.540936  +1.39  -0.87
iter: 773 01:23:00 -1629.409311  +0.75  -0.83
iter: 774 01:30:18 -1975.363085  +2.28  -0.84
Writing to output.gpw (mode='')

iter: 775 01:37:56 -1884.737825  +1.67  -0.77
iter: 776 01:45:14 -1680.633607  +1.52  -0.77
iter: 777 01:52:41 -1559.271558  +1.68  -0.80
iter: 778 02:00:22 -1529.623859  +2.37  -0.85
iter: 779 02:07:49 -1608.906896  +1.96  -1.03
Writing to output.gpw (mode='')

iter: 780 02:15:20 -1617.331532  +1.39  -1.00
iter: 781 02:22:29 -1604.941126  +1.16  -0.99
iter: 782 02:30:02 -1638.144821  +1.55  -1.01
iter: 783 02:37:18 -1569.763473  +1.66  -1.01
iter: 784 02:44:36 -1568.886972  +2.27  -1.11
Writing to output.gpw (mode='')

iter: 785 02:51:55 -1581.261503  +1.30  -1.37
iter: 786 02:59:12 -1577.833393  +0.77  -1.40
iter: 787 03:06:32 -1579.374845  +0.46  -1.46
iter: 788 03:13:49 -1582.354991  +0.86  -1.47
iter: 789 03:21:16 -1585.934303  +0.63  -1.47
Writing to output.gpw (mode='')

iter: 790 03:28:42 -1596.955627  +1.30  -1.43
iter: 791 03:35:57 -1633.822966  +1.71  -1.32
iter: 792 03:43:20 -1607.729692  +0.52  -1.13
iter: 793 03:50:46 -1609.962853  +0.30  -1.12
iter: 794 03:58:03 -2040.144980  +2.29  -1.11
Writing to output.gpw (mode='')

iter: 795 04:05:34 -2102.395572  +1.48  -0.63
iter: 796 04:12:45 -1439.000833  +2.21  -0.62
iter: 797 04:20:05 -1519.727212  +1.52  -0.87
iter: 798 04:27:26 -1535.655839  +1.23  -0.91
iter: 799 04:34:52 -1791.189309  +2.34  -0.95
Writing to output.gpw (mode='')

iter: 800 04:42:29 -1730.169418  +1.79  -0.77
iter: 801 04:50:00 -1523.908961  +1.46  -0.78
iter: 802 04:57:41 -1831.085779  +2.51  -0.84
iter: 803 05:05:11 -1874.513325  +1.88  -0.72
iter: 804 05:12:27 -2022.256783  +1.82  -0.72
Writing to output.gpw (mode='')

iter: 805 05:20:00 -2111.503157  +1.69  -0.68
iter: 806 05:27:20 -1460.925679  +1.49  -0.65
iter: 807 05:34:44 -2489.572791  +3.12  -0.76
iter: 808 05:42:07 -2150.761232  +2.07  -0.50
iter: 809 05:49:36 -1713.059410  +1.89  -0.53
Writing to output.gpw (mode='')

iter: 810 05:57:12 -1643.859687  +1.42  -0.61
iter: 811 06:04:41 -1298.960418  +1.41  -0.62
iter: 812 06:12:10 -2269.907384  +3.02  -0.66
iter: 813 06:19:35 -2362.399865  +2.28  -0.62
iter: 814 06:26:58 -1988.561026  +1.72  -0.61
Writing to output.gpw (mode='')

iter: 815 06:34:22 -1794.410142  +1.37  -0.62
iter: 816 06:41:41 -1457.062177  +1.96  -0.63
iter: 817 06:49:02 -1558.291994  +2.70  -0.75
iter: 818 06:56:20 -1632.135574  +2.24  -0.71
iter: 819 07:03:49 -1624.539428  +1.89  -0.76
Writing to output.gpw (mode='')

iter: 820 07:11:16 -1551.710425  +1.46  -0.82
iter: 821 07:18:32 -1548.587343  +1.07  -0.90
iter: 822 07:25:48 -1606.486811  +2.31  -0.92
iter: 823 07:33:03 -1609.884102  +1.50  -0.87
iter: 824 07:40:43 -1525.310135  +1.20  -0.89
Writing to output.gpw (mode='')

iter: 825 07:48:23 -1607.386271  +2.40  -0.94
iter: 826 07:55:53 -1700.566228  +2.02  -1.01
iter: 827 08:03:11 -2066.137101  +2.47  -0.94
iter: 828 08:10:36 -2106.608233  +1.75  -0.69
iter: 829 08:18:03 -1555.622538  +1.43  -0.66
Writing to output.gpw (mode='')

iter: 830 08:25:34 -1874.771940  +2.82  -0.72
iter: 831 08:32:53 -1951.705334  +1.95  -0.69
iter: 832 08:40:25 -2018.175279  +1.87  -0.73
iter: 833 08:47:56 -2049.207232  +1.72  -0.74
iter: 834 08:55:23 -1686.608310  +1.93  -0.74
Writing to output.gpw (mode='')

iter: 835 09:02:47 -1637.184406  +2.38  -0.80
iter: 836 09:10:10 -1677.027669  +1.83  -0.75
iter: 837 09:17:32 -1708.032144  +1.55  -0.74
iter: 838 09:24:53 -1725.365693  +1.90  -0.76
iter: 839 09:32:08 -1621.667287  +2.08  -0.78
Writing to output.gpw (mode='')

iter: 840 09:39:31 -1574.256374  +1.93  -0.81
iter: 841 09:46:49 -1588.469136  +2.46  -0.86
iter: 842 09:54:24 -1618.609967  +1.83  -1.04
iter: 843 10:01:44 -1560.476869  +1.17  -1.05
iter: 844 10:09:13 -1585.161894  +2.27  -1.10
Writing to output.gpw (mode='')

iter: 845 10:16:34 -1605.529295  +1.54  -1.17
iter: 846 10:24:03 -1593.712172  +1.06  -1.16
iter: 847 10:31:23 -1578.547002  +1.04  -1.17
iter: 848 10:38:35 -1579.067459  +1.13  -1.19
iter: 849 10:45:56 -1605.805255  +2.01  -1.20
Writing to output.gpw (mode='')

iter: 850 10:53:16 -1593.860254  +1.02  -1.24
iter: 851 11:00:37 -1611.658564  +1.99  -1.28
iter: 852 11:08:14 -1604.097009  +0.99  -1.29
iter: 853 11:15:33 -1602.578388  +0.65  -1.27
iter: 854 11:22:52 -1601.104602  +0.35  -1.24
Writing to output.gpw (mode='')

iter: 855 11:30:12 -1606.181239  +0.37  -1.22
iter: 856 11:37:42 -1644.475099  +1.37  -1.20
iter: 857 11:45:21 -1584.569608  +0.54  -1.10
iter: 858 11:52:47 -1637.260643  +2.28  -1.16
iter: 859 12:00:10 -1584.017741  +0.95  -1.17
Writing to output.gpw (mode='')

iter: 860 12:07:41 -1576.748309  +0.80  -1.22
iter: 861 12:15:00 -1575.974504  +0.78  -1.26
iter: 862 12:22:16 -1577.197169  +1.27  -1.31
iter: 863 12:29:27 -1579.705989  +0.89  -1.40
iter: 864 12:36:41 -1601.027957  +1.36  -1.49
Writing to output.gpw (mode='')

iter: 865 12:43:48 -1580.702369  +0.73  -1.38
iter: 866 12:51:05 -1591.727293  +0.19  -1.49
iter: 867 12:58:21 -1616.010869  +1.94  -1.45
iter: 868 13:05:33 -1608.827513  +0.88  -1.31
iter: 869 13:12:52 -1595.268528  +0.25  -1.29
Writing to output.gpw (mode='')

iter: 870 13:20:12 -1605.357510  +0.52  -1.31
iter: 871 13:27:31 -1627.050420  +1.21  -1.29
iter: 872 13:34:54 -1650.309289  +1.32  -1.18
iter: 873 13:42:15 -1553.745842  +1.67  -1.08
iter: 874 13:49:36 -1575.893980  +1.93  -1.39
Writing to output.gpw (mode='')

iter: 875 13:56:56 -1584.690274  +0.86  -1.62
iter: 876 14:04:20 -1600.852398  +1.18  -1.71
iter: 877 14:11:50 -1595.465246  +0.21  -1.47
iter: 878 14:19:02 -1589.818819  -0.29  -1.45
iter: 879 14:26:30 -1593.653947  -0.37  -1.46
Writing to output.gpw (mode='')

iter: 880 14:34:00 -1582.505017  +1.03  -1.43
iter: 881 14:41:32 -1587.988842  -0.51  -1.64
iter: 882 14:48:50 -1997.319502  +2.01  -1.60
iter: 883 14:56:21 -1733.776265  +1.34  -0.66
iter: 884 15:03:38 -1751.914507  +0.84  -0.67
Writing to output.gpw (mode='')

iter: 885 15:11:03 -1817.834929  +0.68  -0.67
iter: 886 15:18:19 -1654.888888  +0.49  -0.66
iter: 887 15:25:36 -6382.360532  +2.63  -0.68
iter: 888 15:32:55 -3688.193288  +2.39  -0.19
iter: 889 15:40:11 -3082.909558  +1.95  -0.23
Writing to output.gpw (mode='')

iter: 890 15:47:22 -2545.624318  +1.71  -0.23
iter: 891 15:54:42   655.968817  +2.95  -0.23
iter: 892 16:02:12 -1095.578968  +3.54  -0.32
iter: 893 16:09:37 -3059.066965  +3.16  -0.37
iter: 894 16:17:10 -1069.013992  +2.35  -0.46
Writing to output.gpw (mode='')

iter: 895 16:24:39  -941.562613  +3.08  -0.63
iter: 896 16:31:55 -1587.428384  +3.02  -0.69
iter: 897 16:39:25 -1515.254523  +2.02  -0.79
iter: 898 16:47:04 -1991.785327  +3.02  -0.90
iter: 899 16:54:42 -2073.545892  +2.21  -0.70
Writing to output.gpw (mode='')

iter: 900 17:02:17 -2534.089120  +2.55  -0.69
iter: 901 17:09:46 -2257.053031  +1.60  -0.59
iter: 902 17:17:14 -1980.524848  +1.04  -0.59
iter: 903 17:24:31 -2212.843679  +2.70  -0.59
iter: 904 17:32:00 -2040.003784  +1.89  -0.57
Writing to output.gpw (mode='')

iter: 905 17:39:24 -2229.922837  +2.40  -0.61
iter: 906 17:46:57 -2428.027891  +2.04  -0.59
iter: 907 17:54:34 -1986.820356  +1.54  -0.60
iter: 908 18:02:05 -1977.827149  +2.37  -0.62
iter: 909 18:09:42 -2248.182703  +2.12  -0.65
Writing to output.gpw (mode='')

iter: 910 18:17:10 -2070.452059  +1.70  -0.66
iter: 911 18:24:37 -1665.947838  +2.29  -0.68
iter: 912 18:32:10 -1704.719502  +1.80  -0.74
iter: 913 18:39:30 -1793.867837  +2.38  -0.74
iter: 914 18:46:49 -1684.652930  +1.53  -0.74
Writing to output.gpw (mode='')

iter: 915 18:54:10 -1809.903031  +2.45  -0.75
iter: 916 19:01:22 -1936.174664  +1.88  -0.73
iter: 917 19:08:32 -1853.515787  +1.48  -0.75
iter: 918 19:15:45 -1505.652298  +1.99  -0.76
iter: 919 19:23:08 -1721.028317  +2.51  -1.01
Writing to output.gpw (mode='')

iter: 920 19:30:21 -1937.996853  +2.57  -0.92
iter: 921 19:37:45 -1609.631525  +1.24  -0.82
iter: 922 19:45:09 -1571.624268  +2.66  -0.87
iter: 923 19:52:27 -1623.877041  +1.88  -1.00
iter: 924 19:59:52 -1562.473174  +1.90  -1.02
Writing to output.gpw (mode='')

iter: 925 20:07:18 -1677.073909  +2.20  -1.18
iter: 926 20:14:38 -1625.416052  +1.26  -1.07
iter: 927 20:21:47 -1859.394599  +2.26  -1.06
iter: 928 20:29:08 -1966.944927  +1.69  -0.74
iter: 929 20:36:25 -1922.203620  +1.26  -0.71
Writing to output.gpw (mode='')

iter: 930 20:43:45 -1481.087883  +1.79  -0.70
iter: 931 20:50:58 -1453.116772  +1.67  -0.90
iter: 932 20:58:15 -1849.503238  +2.75  -0.98
iter: 933 21:05:24 -1875.565131  +1.93  -0.72
iter: 934 21:12:35 -1846.783592  +1.69  -0.71
Writing to output.gpw (mode='')

iter: 935 21:20:02 -1854.134793  +1.35  -0.69
iter: 936 21:27:30 -1730.066708  +0.86  -0.67
iter: 937 21:34:56 -1810.446902  +2.32  -0.68
iter: 938 21:42:10 -1798.888134  +1.87  -0.70
iter: 939 21:49:32 -1679.324162  +1.46  -0.73
Writing to output.gpw (mode='')

iter: 940 21:56:45 -1497.559040  +2.27  -0.76
iter: 941 22:04:00 -1528.682914  +1.70  -1.01
iter: 942 22:11:14 -1575.291560  +2.18  -1.05
iter: 943 22:18:39 -1604.933544  +1.74  -1.06
iter: 944 22:26:00 -1540.026129  +1.40  -1.05
Writing to output.gpw (mode='')

iter: 945 22:33:13 -1612.258521  +2.32  -1.13
iter: 946 22:40:29 -1572.083177  +1.34  -1.06
iter: 947 22:47:54 -1983.815780  +2.59  -1.14
iter: 948 22:55:17 -1756.806317  +1.61  -0.64
iter: 949 23:02:36 -1410.001674  +1.63  -0.64
Writing to output.gpw (mode='')

iter: 950 23:10:02 -1435.751796  +1.21  -0.74
iter: 951 23:17:33 -1440.047953  +1.55  -0.77
iter: 952 23:25:02 -1466.949718  +1.59  -0.82
iter: 953 23:32:25 -1557.140254  +2.52  -0.91
iter: 954 23:39:41 -1648.048316  +2.15  -1.17
Writing to output.gpw (mode='')

iter: 955 23:47:03 -1677.846737  +1.88  -1.12
iter: 956 23:54:12 -1695.890661  +1.45  -0.98
iter: 957 00:01:24 -1705.530877  +1.19  -0.93
iter: 958 00:08:52 -1751.916943  +1.34  -0.88
iter: 959 00:16:10 -1676.983454  +0.65  -0.84
Writing to output.gpw (mode='')

iter: 960 00:23:40 -1526.072271  +1.47  -0.82
iter: 961 00:31:05 -1650.190213  +2.70  -0.90
iter: 962 00:38:22 -1652.760659  +1.74  -0.99
iter: 963 00:45:45 -1665.387529  +1.51  -0.96
iter: 964 00:53:14 -1755.405596  +1.66  -0.92
Writing to output.gpw (mode='')

iter: 965 01:00:35 -1640.757587  +1.07  -0.85
iter: 966 01:07:50 -2116.310482  +2.35  -0.86
iter: 967 01:15:10 -2055.606262  +1.76  -0.71
iter: 968 01:22:34 -1952.717534  +1.35  -0.70
iter: 969 01:29:53 -1723.697853  +1.19  -0.69
Writing to output.gpw (mode='')

iter: 970 01:37:18 -1554.605292  +2.43  -0.72
iter: 971 01:44:42 -1681.568570  +2.02  -0.87
iter: 972 01:52:08 -1820.833980  +2.22  -0.87
iter: 973 01:59:45 -1837.879392  +1.64  -0.81
iter: 974 02:07:20 -1602.901650  +1.73  -0.80
Writing to output.gpw (mode='')

iter: 975 02:14:52 -1789.554937  +2.59  -0.89
iter: 976 02:22:11 -1792.790404  +1.63  -0.67
iter: 977 02:29:42 -1598.848182  +1.37  -0.67
iter: 978 02:37:21 -1568.651764  +1.97  -0.75
iter: 979 02:44:42 -1585.999434  +1.32  -0.83
Writing to output.gpw (mode='')

iter: 980 02:52:06 -2135.168816  +2.52  -0.87
iter: 981 02:59:28 -1891.225283  +1.64  -0.63
iter: 982 03:06:38 -1501.932023  +2.26  -0.63
iter: 983 03:13:58 -1543.874204  +1.56  -0.92
iter: 984 03:21:08 -1573.255010  +1.48  -0.95
Writing to output.gpw (mode='')

iter: 985 03:28:37 -1616.841478  +1.51  -0.98
iter: 986 03:35:55 -1586.947641  +1.14  -1.00
iter: 987 03:43:15 -1770.576077  +2.27  -1.07
iter: 988 03:50:44 -1683.569394  +1.36  -0.80
iter: 989 03:58:08 -1534.682758  +1.76  -0.81
Writing to output.gpw (mode='')

iter: 990 04:05:42 -1541.084268  +1.65  -0.85
iter: 991 04:13:10 -1534.615482  +1.69  -0.86
iter: 992 04:20:40 -1822.257739  +2.55  -0.87
iter: 993 04:28:10 -1643.161480  +1.58  -0.84
iter: 994 04:35:24 -1496.039564  +1.89  -0.86
Writing to output.gpw (mode='')

iter: 995 04:42:52 -1525.318518  +1.29  -0.96
iter: 996 04:50:10 -1549.487131  +1.01  -0.98
iter: 997 04:57:36 -1685.594287  +2.04  -1.01
iter: 998 05:05:04 -1624.570903  +1.36  -0.96
iter: 999 05:12:22 -1560.145838  +1.39  -0.96

Did not converge!

Here are some tips:

1) Make sure the geometry and spin-state is physically sound.
2) Use less aggressive density mixing.
3) Solve the eigenvalue problem more accurately at each scf-step.
4) Use a smoother distribution function for the occupation numbers.
5) Try adding more empty states.
6) Use enough k-points.
7) Don't let your structure optimization algorithm take too large steps.
8) Solve the Poisson equation more accurately.
9) Better initial guess for the wave functions.

See details here:

    https://wiki.fysik.dtu.dk/gpaw/documentation/convergence.html


