
  ___ ___ ___ _ _ _  
 |   |   |_  | | | | 
 | | | | | . | | | | 
 |__ |  _|___|_____|  22.8.0
 |___|_|             

User:   vazumah@f019
Date:   Wed Jan 11 16:26:43 2023
Arch:   x86_64
Pid:    23190
CWD:    /home/vazumah/Python_Projects/Li_NRR/autocad_start/bulk_relaxations/Sr_bulk_fcc
Python: 3.10.6
gpaw:   /home/vazumah/anaconda3/envs/NAME/lib/python3.10/site-packages/gpaw
_gpaw:  /home/vazumah/anaconda3/envs/NAME/lib/python3.10/site-packages/
        _gpaw.cpython-310-x86_64-linux-gnu.so
ase:    /home/vazumah/anaconda3/envs/NAME/lib/python3.10/site-packages/ase (version 3.22.1)
numpy:  /home/vazumah/anaconda3/envs/NAME/lib/python3.10/site-packages/numpy (version 1.23.3)
scipy:  /home/vazumah/anaconda3/envs/NAME/lib/python3.10/site-packages/scipy (version 1.9.1)
libxc:  5.2.3
units:  Angstrom and eV
cores: 32
OpenMP: True
OMP_NUM_THREADS: 1

Input parameters:
  h: 0.16
  kpts: {size: [2, 2, 1]}
  occupations: {name: fermi-dirac,
                width: 0.05}
  xc: BEEF-vdW

System changes: positions, numbers, cell, pbc, initial_charges, initial_magmoms 

Initialize ...

species:
  Sr:
    name: Strontium
    id: 1681cef0785a8ddd65899c0215808a0d
    Z: 38.0
    valence: 10
    core: 28
    charge: 0.0
    file: /home/vazumah/anaconda3/envs/NAME/share/gpaw/Sr.PBE.gz
    compensation charges: {type: gauss,
                           rc: 0.40,
                           lmax: 2}
    cutoffs: {filter: 2.39,
              core: 1.85}
    valence states:
      #              energy  rcut
      - 4s(2.00)   -40.883   1.291
      - 5s(2.00)    -3.525   1.291
      - 4p(6.00)   -22.826   1.291
      -  p           4.386   1.291
      -  d           0.000   1.254
  
    # Using partial waves for Sr as LCAO basis

Reference energy: -86496.770008  # eV

Spin-paired calculation

Convergence criteria:
 Maximum [total energy] change in last 3 cyles: 0.0005 eV / electron
 Maximum integral of absolute [dens]ity change: 0.0001 electrons / valence electron
 Maximum integral of absolute [eigenst]ate change: 4e-08 eV^2 / valence electron
 Maximum number of scf [iter]ations: 333
 (Square brackets indicate name in SCF output, whereas a 'c' in
 the SCF output indicates the quantity has converged.)

Symmetries present (total): 48

  ( 1  0  0)  ( 1  0  0)  ( 1  0  0)  ( 1  0  0)  ( 1  0 -1)  ( 1  0 -1)
  ( 1  0 -1)  ( 1 -1  0)  ( 0  1  0)  ( 0  0  1)  ( 1  0  0)  ( 1 -1  0)
  ( 1 -1  0)  ( 1  0 -1)  ( 0  0  1)  ( 0  1  0)  ( 1 -1  0)  ( 1  0  0)

  ( 1  0 -1)  ( 1  0 -1)  ( 1 -1  0)  ( 1 -1  0)  ( 1 -1  0)  ( 1 -1  0)
  ( 0  1 -1)  ( 0  0 -1)  ( 1  0  0)  ( 1  0 -1)  ( 0 -1  1)  ( 0 -1  0)
  ( 0  0 -1)  ( 0  1 -1)  ( 1  0 -1)  ( 1  0  0)  ( 0 -1  0)  ( 0 -1  1)

  ( 0  1  0)  ( 0  1  0)  ( 0  1  0)  ( 0  1  0)  ( 0  1 -1)  ( 0  1 -1)
  ( 1  0  0)  ( 0  1 -1)  ( 0  0  1)  (-1  1  0)  ( 1  0 -1)  ( 0  1  0)
  ( 0  0  1)  (-1  1  0)  ( 1  0  0)  ( 0  1 -1)  ( 0  0 -1)  (-1  1  0)

  ( 0  1 -1)  ( 0  1 -1)  ( 0  0  1)  ( 0  0  1)  ( 0  0  1)  ( 0  0  1)
  ( 0  0 -1)  (-1  1  0)  ( 1  0  0)  ( 0  1  0)  ( 0 -1  1)  (-1  0  1)
  ( 1  0 -1)  ( 0  1  0)  ( 0  1  0)  ( 1  0  0)  (-1  0  1)  ( 0 -1  1)

  ( 0  0 -1)  ( 0  0 -1)  ( 0  0 -1)  ( 0  0 -1)  ( 0 -1  1)  ( 0 -1  1)
  ( 1  0 -1)  ( 0  1 -1)  ( 0 -1  0)  (-1  0  0)  ( 1 -1  0)  ( 0  0  1)
  ( 0  1 -1)  ( 1  0 -1)  (-1  0  0)  ( 0 -1  0)  ( 0 -1  0)  (-1  0  1)

  ( 0 -1  1)  ( 0 -1  1)  ( 0 -1  0)  ( 0 -1  0)  ( 0 -1  0)  ( 0 -1  0)
  ( 0 -1  0)  (-1  0  1)  ( 1 -1  0)  ( 0  0 -1)  ( 0 -1  1)  (-1  0  0)
  ( 1 -1  0)  ( 0  0  1)  ( 0 -1  1)  (-1  0  0)  ( 1 -1  0)  ( 0  0 -1)

  (-1  1  0)  (-1  1  0)  (-1  1  0)  (-1  1  0)  (-1  0  1)  (-1  0  1)
  ( 0  1  0)  ( 0  1 -1)  (-1  0  1)  (-1  0  0)  ( 0  0  1)  ( 0 -1  1)
  ( 0  1 -1)  ( 0  1  0)  (-1  0  0)  (-1  0  1)  ( 0 -1  1)  ( 0  0  1)

  (-1  0  1)  (-1  0  1)  (-1  0  0)  (-1  0  0)  (-1  0  0)  (-1  0  0)
  (-1  1  0)  (-1  0  0)  ( 0  0 -1)  ( 0 -1  0)  (-1  1  0)  (-1  0  1)
  (-1  0  0)  (-1  1  0)  ( 0 -1  0)  ( 0  0 -1)  (-1  0  1)  (-1  1  0)
Note: your k-points are not as symmetric as your crystal!

4 k-points: 2 x 2 x 1 Monkhorst-Pack grid
2 k-points in the irreducible part of the Brillouin zone
       k-points in crystal coordinates                weights
   0:     0.25000000   -0.25000000    0.00000000          2/4
   1:     0.25000000    0.25000000    0.00000000          2/4

Wave functions: Uniform real-space grid
  Kinetic energy operator: 12*3+1=37 point O(h^6) finite-difference Laplacian
  ScaLapack parameters: grid=1x1, blocksize=None
  Wavefunction extrapolation:
    Improved wavefunction reuse through dual PAW basis 

Occupation numbers: Fermi-Dirac:
  width: 0.0500  # eV
 

Eigensolver
   Davidson(niter=2) 

Densities:
  Coarse grid: 20*20*20 grid
  Fine grid: 40*40*40 grid
  Total Charge: 0.000000 

Density mixing:
  Method: separate
  Backend: pulay
  Linear mixing parameter: 0.05
  old densities: 5
  Damping of long wavelength oscillations: 50 

Hamiltonian:
  XC and Coulomb potentials evaluated on a 40*40*40 grid
  Using the BEEF-vdW Exchange-Correlation functional
  Interpolation: tri-quintic (5. degree polynomial)
  Poisson solver: FastPoissonSolver using
    Stencil: 12*3+1=37 point O(h^6) finite-difference Laplacian
    FFT axes: [0, 1, 2]
    FST axes: []
 

XC parameters: BEEF-vdW with 2 nearest neighbor stencil

Memory estimate:
  Process memory now: 111.05 MiB
  Calculator: 0.76 MiB
    Density: 0.49 MiB
      Arrays: 0.10 MiB
      Localized functions: 0.35 MiB
      Mixer: 0.04 MiB
    Hamiltonian: 0.10 MiB
      Arrays: 0.06 MiB
      XC: 0.00 MiB
      Poisson: 0.00 MiB
      vbar: 0.03 MiB
    Wavefunctions: 0.17 MiB
      Arrays psit_nG: 0.04 MiB
      Eigensolver: 0.08 MiB
      Projections: 0.00 MiB
      Projectors: 0.05 MiB

Total number of cores used: 32
Parallelization over k-points: 2
Domain decomposition: 4 x 2 x 2

Number of atoms: 1
Number of atomic orbitals: 5
Number of bands in calculation: 5
Number of valence electrons: 10
Bands to converge: occupied

... initialized

Initializing position-dependent things.

Density initialized from atomic densities
Creating initial wave functions:
  5 bands from LCAO basis set

                
                
                
       Sr       
                
                
                
                

Positions:
   0 Sr     0.000000    0.000000    0.000000    ( 0.0000,  0.0000,  0.0000)

Unit cell:
           periodic     x           y           z      points  spacing
  1. axis:    yes    0.000000    3.040000    3.040000    20     0.1755
  2. axis:    yes    3.040000    0.000000    3.040000    20     0.1755
  3. axis:    yes    3.040000    3.040000    0.000000    20     0.1755

  Lengths:   4.299209   4.299209   4.299209
  Angles:   60.000000  60.000000  60.000000

Effective grid spacing dv^(1/3) = 0.1915

     iter     time        total  log10-change:
                         energy  eigst   dens
iter:   1 16:27:00  -108.832517
iter:   2 16:27:13  -108.892947  -0.25  -1.47
iter:   3 16:27:15  -108.906449  -0.84  -1.48
iter:   4 16:27:18  -108.917299  -1.01  -1.51
Writing to output.gpw (mode='')

iter:   5 16:27:21  -108.920810  -1.53  -2.04
iter:   6 16:27:22  -108.928103  -1.66  -2.09
iter:   7 16:27:23  -108.921333  -1.95  -2.24
iter:   8 16:27:24  -108.922002  -2.21  -2.79
iter:   9 16:27:25  -108.922226c -2.55  -2.62
Writing to output.gpw (mode='')

iter:  10 16:27:27  -108.922064c -2.81  -2.67
iter:  11 16:27:29  -108.922131c -3.08  -3.78
iter:  12 16:27:30  -108.922150c -3.31  -3.55
iter:  13 16:27:32  -108.922169c -3.52  -3.67
iter:  14 16:27:34  -108.922179c -3.74  -3.56
Writing to output.gpw (mode='')

iter:  15 16:27:37  -108.922190c -3.95  -3.58
iter:  16 16:27:39  -108.922195c -4.18  -3.59
iter:  17 16:27:42  -108.922197c -4.41  -3.66
iter:  18 16:27:43  -108.922199c -4.60  -3.61
iter:  19 16:27:44  -108.922202c -4.83  -3.61
Writing to output.gpw (mode='')

iter:  20 16:27:45  -108.922196c -5.04  -3.61
iter:  21 16:27:46  -108.922203c -5.17  -3.45
iter:  22 16:27:47  -108.922204c -5.31  -3.62
iter:  23 16:27:47  -108.922205c -5.57  -3.69
iter:  24 16:27:49  -108.922205c -5.77  -3.74
Writing to output.gpw (mode='')

iter:  25 16:27:50  -108.922205c -5.96  -3.75
iter:  26 16:27:51  -108.922205c -6.12  -3.80
iter:  27 16:27:51  -108.922202c -5.66  -3.87
iter:  28 16:27:53  -108.922206c -6.01  -3.42
iter:  29 16:27:55  -108.922205c -6.80  -4.38c
Writing to output.gpw (mode='')

iter:  30 16:27:56  -108.922205c -6.71  -4.42c
iter:  31 16:27:57  -108.922205c -7.06  -4.47c
iter:  32 16:27:58  -108.922205c -7.30  -4.96c
iter:  33 16:27:59  -108.922205c -7.70c -5.07c

Converged after 33 iterations.

Dipole moment: (-1.730457, -1.730457, -1.730457) |e|*Ang

Energy contributions relative to reference atoms: (reference = -86496.770008)

Kinetic:        +11.269029
Potential:      -10.385537
External:        +0.000000
XC:            -109.677806
Entropy (-ST):   -0.000000
Local:           -0.127891
--------------------------
Free energy:   -108.922205
Extrapolated:  -108.922205

Showing all kpts
 Kpt  Band  Eigenvalues  Occupancy
  0     3    -15.60030    2.00000
  0     4      1.92912    2.00000

  1     3    -15.60775    2.00000
  1     4      0.90739    2.00000


Fermi level: inf

Writing to output.gpw (mode='')


Forces in eV/Ang:
  0 Sr    0.00000    0.00000   -0.00000

Timing:                              incl.     excl.
-----------------------------------------------------------
Forces:                              0.036     0.036   0.0% |
Hamiltonian:                        14.093     0.000   0.0% |
 Atomic:                             0.416     0.416   0.5% |
  XC Correction:                     0.000     0.000   0.0% |
 Calculate atomic Hamiltonians:      0.002     0.002   0.0% |
 Communicate:                        0.000     0.000   0.0% |
 Hartree integrate/restrict:         0.001     0.001   0.0% |
 Initialize Hamiltonian:             0.000     0.000   0.0% |
 Poisson:                            0.156     0.001   0.0% |
  Communicate from 1D:               0.057     0.057   0.1% |
  Communicate from 2D:               0.064     0.064   0.1% |
  Communicate to 1D:                 0.005     0.005   0.0% |
  Communicate to 2D:                 0.028     0.028   0.0% |
  FFT 1D:                            0.000     0.000   0.0% |
  FFT 2D:                            0.001     0.001   0.0% |
 XC 3D grid:                        13.519     0.126   0.2% |
  VdW-DF integral:                  13.393     0.005   0.0% |
   Convolution:                      0.006     0.006   0.0% |
   FFT:                              0.003     0.003   0.0% |
   gather:                           7.445     7.445   9.8% |---|
   hmm1:                             0.004     0.004   0.0% |
   hmm2:                             0.004     0.004   0.0% |
   iFFT:                             0.003     0.003   0.0% |
   potential:                        0.229     0.001   0.0% |
    collect:                         0.021     0.021   0.0% |
    p1:                              0.018     0.018   0.0% |
    p2:                              0.007     0.007   0.0% |
    sum:                             0.183     0.183   0.2% |
   splines:                          5.694     5.694   7.5% |--|
 vbar:                               0.000     0.000   0.0% |
LCAO initialization:                 0.192     0.041   0.1% |
 LCAO eigensolver:                   0.047     0.000   0.0% |
  Calculate projections:             0.000     0.000   0.0% |
  DenseAtomicCorrection:             0.000     0.000   0.0% |
  Distribute overlap matrix:         0.018     0.018   0.0% |
  Orbital Layouts:                   0.024     0.024   0.0% |
  Potential matrix:                  0.002     0.002   0.0% |
  Sum over cells:                    0.003     0.003   0.0% |
 LCAO to grid:                       0.000     0.000   0.0% |
 Set positions (LCAO WFS):           0.104     0.076   0.1% |
  Basic WFS set positions:           0.003     0.003   0.0% |
  Basis functions set positions:     0.000     0.000   0.0% |
  P tci:                             0.004     0.004   0.0% |
  ST tci:                            0.008     0.008   0.0% |
  mktci:                             0.012     0.012   0.0% |
SCF-cycle:                          61.085     0.357   0.5% |
 Davidson:                           8.810     5.409   7.1% |--|
  Apply hamiltonian:                 0.535     0.535   0.7% |
  Subspace diag:                     1.477     0.003   0.0% |
   calc_h_matrix:                    1.282     0.009   0.0% |
    Apply hamiltonian:               1.272     1.272   1.7% ||
   diagonalize:                      0.188     0.188   0.2% |
   rotate_psi:                       0.004     0.004   0.0% |
  calc. matrices:                    1.372     0.679   0.9% |
   Apply hamiltonian:                0.693     0.693   0.9% |
  diagonalize:                       0.009     0.009   0.0% |
  rotate_psi:                        0.008     0.008   0.0% |
 Density:                            3.239     0.001   0.0% |
  Atomic density matrices:           0.110     0.110   0.1% |
  Mix:                               1.366     1.366   1.8% ||
  Multipole moments:                 0.048     0.048   0.1% |
  Pseudo density:                    1.715     0.003   0.0% |
   Symmetrize density:               1.712     1.712   2.2% ||
 Hamiltonian:                       48.654     0.003   0.0% |
  Atomic:                            9.954     9.953  13.1% |----|
   XC Correction:                    0.000     0.000   0.0% |
  Calculate atomic Hamiltonians:     0.242     0.242   0.3% |
  Communicate:                       0.076     0.076   0.1% |
  Hartree integrate/restrict:        0.318     0.318   0.4% |
  Poisson:                           2.402     0.148   0.2% |
   Communicate from 1D:              0.584     0.584   0.8% |
   Communicate from 2D:              0.648     0.648   0.9% |
   Communicate to 1D:                0.358     0.358   0.5% |
   Communicate to 2D:                0.640     0.640   0.8% |
   FFT 1D:                           0.006     0.006   0.0% |
   FFT 2D:                           0.018     0.018   0.0% |
  XC 3D grid:                       35.658     3.327   4.4% |-|
   VdW-DF integral:                 32.332     0.079   0.1% |
    Convolution:                     0.179     0.179   0.2% |
    FFT:                             0.073     0.073   0.1% |
    gather:                         27.622    27.622  36.2% |-------------|
    hmm1:                            0.140     0.140   0.2% |
    hmm2:                            0.137     0.137   0.2% |
    iFFT:                            0.102     0.102   0.1% |
    potential:                       4.000     0.021   0.0% |
     collect:                        0.828     0.828   1.1% |
     p1:                             0.567     0.567   0.7% |
     p2:                             0.190     0.190   0.2% |
     sum:                            2.395     2.395   3.1% ||
    splines:                         0.000     0.000   0.0% |
  vbar:                              0.002     0.002   0.0% |
 Orthonormalize:                     0.025     0.000   0.0% |
  calc_s_matrix:                     0.000     0.000   0.0% |
  inverse-cholesky:                  0.010     0.010   0.0% |
  projections:                       0.014     0.014   0.0% |
  rotate_psi_s:                      0.000     0.000   0.0% |
Set symmetry:                        0.026     0.026   0.0% |
Other:                               0.813     0.813   1.1% |
-----------------------------------------------------------
Total:                                        76.245 100.0%

Memory usage: 144.55 MiB
Date: Wed Jan 11 16:27:59 2023
