
  ___ ___ ___ _ _ _  
 |   |   |_  | | | | 
 | | | | | . | | | | 
 |__ |  _|___|_____|  22.8.0
 |___|_|             

User:   vazumah@c16.hercules
Date:   Sun Feb 12 10:29:32 2023
Arch:   x86_64
Pid:    12264
CWD:    /home/vazumah/Python_projects/LiNRR/autocad_start/slab_experiments/free_slabs/Sr/fcc100/substrate
Python: 3.10.8
gpaw:   /home/vazumah/.conda/envs/GPAW/lib/python3.10/site-packages/gpaw
_gpaw:  /home/vazumah/.conda/envs/GPAW/lib/python3.10/site-packages/
        _gpaw.cpython-310-x86_64-linux-gnu.so
ase:    /home/vazumah/.conda/envs/GPAW/lib/python3.10/site-packages/ase (version 3.22.1)
numpy:  /home/vazumah/.conda/envs/GPAW/lib/python3.10/site-packages/numpy (version 1.24.1)
scipy:  /home/vazumah/.conda/envs/GPAW/lib/python3.10/site-packages/scipy (version 1.10.0)
libxc:  5.2.3
units:  Angstrom and eV
cores: 24
OpenMP: True
OMP_NUM_THREADS: 1

Reading from output.gpw
Read dipole, energy, free_energy, magmom, magmoms
Reading input parameters:
  eigensolver: {name: dav,
                niter: 3}
  h: 0.16
  kpts: {size: [4, 4, 1]}
  maxiter: 999
  mixer: {backend: pulay,
          beta: 0.02,
          method: separate,
          nmaxold: 5,
          weight: 100}
  occupations: {name: fermi-dirac,
                width: 0.05}
  poissonsolver: {dipolelayer: xy}
  xc: BEEF-vdW

Initialize ...

species:
  Sr:
    name: Strontium
    id: 1681cef0785a8ddd65899c0215808a0d
    Z: 38.0
    valence: 10
    core: 28
    charge: 0.0
    file: /home/vazumah/.conda/envs/GPAW/share/gpaw/Sr.PBE.gz
    compensation charges: {type: gauss,
                           rc: 0.40,
                           lmax: 2}
    cutoffs: {filter: 2.39,
              core: 1.85}
    valence states:
      #              energy  rcut
      - 4s(2.00)   -40.883   1.291
      - 5s(2.00)    -3.525   1.291
      - 4p(6.00)   -22.826   1.291
      -  p           4.386   1.291
      -  d           0.000   1.254
  
    # Using partial waves for Sr as LCAO basis

Reference energy: -3113883.720283  # eV

Spin-paired calculation

Convergence criteria:
 Maximum [total energy] change in last 3 cyles: 0.0005 eV / electron
 Maximum integral of absolute [dens]ity change: 0.0001 electrons / valence electron
 Maximum integral of absolute [eigenst]ate change: 4e-08 eV^2 / valence electron
 Maximum number of scf [iter]ations: 999
 (Square brackets indicate name in SCF output, whereas a 'c' in
 the SCF output indicates the quantity has converged.)

Symmetries present (total): 8

  ( 1  0  0)  ( 1  0  0)  ( 0  1  0)  ( 0  1  0)  ( 0 -1  0)  ( 0 -1  0)
  ( 0  1  0)  ( 0 -1  0)  ( 1  0  0)  (-1  0  0)  ( 1  0  0)  (-1  0  0)
  ( 0  0  1)  ( 0  0  1)  ( 0  0  1)  ( 0  0  1)  ( 0  0  1)  ( 0  0  1)

  (-1  0  0)  (-1  0  0)
  ( 0  1  0)  ( 0 -1  0)
  ( 0  0  1)  ( 0  0  1)

16 k-points: 4 x 4 x 1 Monkhorst-Pack grid
3 k-points in the irreducible part of the Brillouin zone
       k-points in crystal coordinates                weights
   0:     0.12500000    0.12500000    0.00000000          4/16
   1:     0.37500000    0.12500000    0.00000000          8/16
   2:     0.37500000    0.37500000    0.00000000          4/16

Wave functions: Uniform real-space grid
  Kinetic energy operator: 6*3+1=19 point O(h^6) finite-difference Laplacian
  ScaLapack parameters: grid=1x1, blocksize=None
  Wavefunction extrapolation:
    Improved wavefunction reuse through dual PAW basis 

Occupation numbers: Fermi-Dirac:
  width: 0.0500  # eV
 

Eigensolver
   Davidson(niter=3) 

Densities:
  Coarse grid: 80*80*180 grid
  Fine grid: 160*160*360 grid
  Total Charge: 0.000000 

Density mixing:
  Method: separate
  Backend: pulay
  Linear mixing parameter: 0.02
  old densities: 5
  Damping of long wavelength oscillations: 100 

Hamiltonian:
  XC and Coulomb potentials evaluated on a 160*160*360 grid
  Using the BEEF-vdW Exchange-Correlation functional
  Interpolation: tri-quintic (5. degree polynomial)
  Poisson solver: FastPoissonSolver using
    Stencil: 6*3+1=19 point O(h^6) finite-difference Laplacian
    FFT axes: [0, 1]
    FST axes: [2]

Dipole correction along z-axis 

XC parameters: BEEF-vdW with 2 nearest neighbor stencil

Memory estimate:
  Process memory now: 191.82 MiB
  Calculator: 899.15 MiB
    Density: 81.59 MiB
      Arrays: 28.22 MiB
      Localized functions: 42.62 MiB
      Mixer: 10.74 MiB
    Hamiltonian: 22.20 MiB
      Arrays: 18.46 MiB
      XC: 0.00 MiB
      Poisson: 0.00 MiB
      vbar: 3.74 MiB
    Wavefunctions: 795.37 MiB
      Arrays psit_nG: 386.72 MiB
      Eigensolver: 402.41 MiB
      Projections: 0.16 MiB
      Projectors: 6.08 MiB

Total number of cores used: 24
Parallelization over k-points: 3
Domain decomposition: 1 x 2 x 4

Number of atoms: 36
Number of atomic orbitals: 180
Number of bands in calculation: 180
Number of valence electrons: 360
Bands to converge: occupied

... initialized

Initializing position-dependent things.

Creating initial wave functions:
  180 bands from LCAO basis set

         .-------------------------------.  
        /|                               |  
       / |                               |  
      /  |                               |  
     /   |                               |  
    /    |                               |  
   /     |                               |  
  /      |                               |  
 *       |                               |  
 |       |                               |  
 |       |                               |  
 |       |                               |  
 |       |                               |  
 |       |                               |  
 |       |                               |  
 |    Sr |       Sr         Sr           |  
 |       |                               |  
 |       |   Sr         Sr        Sr     |  
 |  Sr   |    Sr         Sr              |  
 |       |                               |  
 Sr      |SrSr       SSr        Sr       |  
 |       |                               |  
 |       |                               |  
 |    SrSr       SSr        SSr          |  
 |       |                               |  
 |  Sr   |   SSr        SSr       Sr     |  
 |       |                               |  
 |       |                               |  
 Sr      |SrSr       SSr        Sr       |  
 |       |                               |  
 |      Sr        Sr         Sr          |  
 |       |                               |  
 |       |                               |  
 |       |                               |  
 |       |                               |  
 |       |                               |  
 |       .-------------------------------.  
 |      /                               /   
 |     /                               /    
 |    /                               /     
 |   /                               /      
 |  /                               /       
 | /                               /        
 |/                               /         
 *-------------------------------*          

Positions:
   0 Sr     2.149246    2.149246   10.021094    ( 0.0000,  0.0000,  0.0000)
   1 Sr     6.448814    2.154059   10.019139    ( 0.0000,  0.0000,  0.0000)
   2 Sr    10.748382    2.149246   10.021094    ( 0.0000,  0.0000,  0.0000)
   3 Sr     2.154059    6.448814   10.019139    ( 0.0000,  0.0000,  0.0000)
   4 Sr     6.448814    6.448814   10.015260    ( 0.0000,  0.0000,  0.0000)
   5 Sr    10.743568    6.448814   10.019139    ( 0.0000,  0.0000,  0.0000)
   6 Sr     2.149246   10.748382   10.021094    ( 0.0000,  0.0000,  0.0000)
   7 Sr     6.448814   10.743568   10.019139    ( 0.0000,  0.0000,  0.0000)
   8 Sr    10.748382   10.748382   10.021094    ( 0.0000,  0.0000,  0.0000)
   9 Sr     0.000000    0.000000   13.021849    ( 0.0000,  0.0000,  0.0000)
  10 Sr     4.297940    0.000000   13.023653    ( 0.0000,  0.0000,  0.0000)
  11 Sr     8.599687   -0.000000   13.023653    ( 0.0000,  0.0000,  0.0000)
  12 Sr    -0.000000    4.297940   13.023653    ( 0.0000,  0.0000,  0.0000)
  13 Sr     4.301459    4.301459   13.027174    ( 0.0000,  0.0000,  0.0000)
  14 Sr     8.596169    4.301459   13.027174    ( 0.0000,  0.0000,  0.0000)
  15 Sr     0.000000    8.599687   13.023653    ( 0.0000,  0.0000,  0.0000)
  16 Sr     4.301459    8.596169   13.027174    ( 0.0000,  0.0000,  0.0000)
  17 Sr     8.596169    8.596169   13.027174    ( 0.0000,  0.0000,  0.0000)
  18 Sr     2.147379    2.147379   16.092874    ( 0.0000,  0.0000,  0.0000)
  19 Sr     6.448814    2.150773   16.096442    ( 0.0000,  0.0000,  0.0000)
  20 Sr    10.750249    2.147379   16.092874    ( 0.0000,  0.0000,  0.0000)
  21 Sr     2.150773    6.448814   16.096442    ( 0.0000,  0.0000,  0.0000)
  22 Sr     6.448814    6.448814   16.098138    ( 0.0000,  0.0000,  0.0000)
  23 Sr    10.746855    6.448814   16.096442    ( 0.0000,  0.0000,  0.0000)
  24 Sr     2.147379   10.750249   16.092874    ( 0.0000,  0.0000,  0.0000)
  25 Sr     6.448814   10.746855   16.096442    ( 0.0000,  0.0000,  0.0000)
  26 Sr    10.750249   10.750249   16.092874    ( 0.0000,  0.0000,  0.0000)
  27 Sr     0.000000   -0.000000   19.105028    ( 0.0000,  0.0000,  0.0000)
  28 Sr     4.294793   -0.000000   19.101063    ( 0.0000,  0.0000,  0.0000)
  29 Sr     8.602835    0.000000   19.101063    ( 0.0000,  0.0000,  0.0000)
  30 Sr    -0.000000    4.294793   19.101063    ( 0.0000,  0.0000,  0.0000)
  31 Sr     4.299505    4.299505   19.099152    ( 0.0000,  0.0000,  0.0000)
  32 Sr     8.598122    4.299505   19.099152    ( 0.0000,  0.0000,  0.0000)
  33 Sr    -0.000000    8.602835   19.101063    ( 0.0000,  0.0000,  0.0000)
  34 Sr     4.299505    8.598122   19.099152    ( 0.0000,  0.0000,  0.0000)
  35 Sr     8.598122    8.598122   19.099152    ( 0.0000,  0.0000,  0.0000)

Unit cell:
           periodic     x           y           z      points  spacing
  1. axis:    yes   12.897628    0.000000    0.000000    80     0.1612
  2. axis:    yes    0.000000   12.897628    0.000000    80     0.1612
  3. axis:    no     0.000000    0.000000   29.120000   180     0.1618

  Lengths:  12.897628  12.897628  29.120000
  Angles:   90.000000  90.000000  90.000000

Effective grid spacing dv^(1/3) = 0.1614

     iter     time        total  log10-change:
                         energy  eigst   dens
iter:   1 10:42:59 -3844.491305  +0.83
iter:   2 10:54:37 -3853.466303  +0.75  -1.48
iter:   3 11:06:23 -3858.642908  +0.35  -1.54
iter:   4 11:18:14 -3862.425640  +0.36  -1.67
Writing to output.gpw (mode='')

iter:   5 11:30:08 -3865.000765  +0.16  -1.85
iter:   6 11:42:02 -3866.883367  +0.01  -1.87
iter:   7 11:54:00 -3868.366763  -0.11  -1.79
iter:   8 12:05:52 -3869.056569  -0.19  -1.71
iter:   9 12:17:38 -3868.597829  -0.69  -1.67
Writing to output.gpw (mode='')

iter:  10 12:29:35 -3868.847905  -0.69  -1.71
iter:  11 12:41:32 -3869.393693  -0.90  -1.70
iter:  12 12:53:39 -3868.833701  -0.94  -1.65
iter:  13 13:05:19 -3867.967361  -0.91  -1.67
iter:  14 13:17:03 -3868.301112  -0.80  -1.84
Writing to output.gpw (mode='')

iter:  15 13:28:44 -3868.369932  -1.43  -2.00
iter:  16 13:40:25 -3868.353120c -1.16  -2.06
iter:  17 13:52:07 -3868.475202c -1.15  -2.36
iter:  18 14:03:52 -3868.528117c -1.30  -2.43
iter:  19 14:15:39 -3868.661003  -1.45  -2.49
Writing to output.gpw (mode='')

iter:  20 14:27:32 -3868.691515c -1.51  -2.39
iter:  21 14:39:20 -3868.701506c -1.59  -2.42
iter:  22 14:51:20 -3868.717979c -1.74  -2.47
iter:  23 15:03:25 -3868.758814c -1.63  -2.53
iter:  24 15:15:36 -3868.848917c -1.30  -2.61
Writing to output.gpw (mode='')

iter:  25 15:27:24 -3868.855456c -1.63  -2.54
iter:  26 15:39:12 -3868.886325c -1.75  -2.67
iter:  27 15:50:57 -3868.900170c -1.76  -2.61
iter:  28 16:02:36 -3868.921592c -1.68  -2.61
iter:  29 16:13:53 -3868.964458c -1.94  -2.58
Writing to output.gpw (mode='')

iter:  30 16:25:29 -3868.990860c -1.72  -2.50
iter:  31 16:37:18 -3869.020475c -1.96  -2.47
iter:  32 16:49:05 -3869.022884c -1.80  -2.42
iter:  33 17:00:53 -3869.045229c -1.92  -2.49
iter:  34 17:12:35 -3869.105514c -1.83  -2.41
Writing to output.gpw (mode='')

iter:  35 17:24:28 -3869.112432c -1.92  -2.38
iter:  36 17:36:28 -3869.116103c -1.83  -2.30
iter:  37 17:48:00 -3869.135815c -1.85  -2.48
iter:  38 17:59:56 -3869.175852c -1.92  -2.58
iter:  39 18:11:50 -3869.197232c -1.94  -2.71
Writing to output.gpw (mode='')

iter:  40 18:23:46 -3869.273767c -1.88  -2.74
iter:  41 18:35:15 -3869.284102c -1.88  -2.49
iter:  42 18:47:00 -3869.289706c -2.11  -2.44
iter:  43 18:58:38 -3869.262351c -2.16  -2.42
iter:  44 19:10:31 -3869.262296c -2.13  -2.47
Writing to output.gpw (mode='')

iter:  45 19:22:20 -3869.287312c -2.34  -2.51
iter:  46 19:33:58 -3869.319553c -2.13  -2.49
iter:  47 19:45:58 -3869.289679c -2.26  -2.46
iter:  48 19:58:10 -3869.279919c -2.03  -2.53
iter:  49 20:10:01 -3869.277507c -2.00  -2.55
Writing to output.gpw (mode='')

iter:  50 20:21:50 -3869.326669c -2.01  -2.60
iter:  51 20:33:51 -3869.333628c -2.09  -2.57
iter:  52 20:45:43 -3869.359298c -2.22  -2.54
iter:  53 20:57:40 -3869.352088c -2.30  -2.47
iter:  54 21:09:28 -3869.348166c -2.33  -2.46
Writing to output.gpw (mode='')

iter:  55 21:21:13 -3869.347465c -2.34  -2.47
iter:  56 21:32:56 -3869.359766c -2.38  -2.48
iter:  57 21:44:43 -3869.458316c -2.37  -2.46
iter:  58 21:56:32 -3869.354253c -1.90  -2.25
iter:  59 22:08:31 -3869.437331c -1.81  -2.44
Writing to output.gpw (mode='')

iter:  60 22:20:19 -3869.413867c -2.08  -2.40
iter:  61 22:32:09 -3869.412315c -2.63  -2.39
iter:  62 22:44:02 -3869.359193c -2.08  -2.37
iter:  63 22:55:55 -3869.368847c -2.11  -2.52
iter:  64 23:07:53 -3869.419658c -2.36  -2.52
Writing to output.gpw (mode='')

iter:  65 23:19:53 -3869.360738c -2.49  -2.52
iter:  66 23:31:35 -3869.337564c -2.52  -2.54
iter:  67 23:43:23 -3869.331189c -2.08  -2.60
iter:  68 23:55:19 -3869.349407c -2.67  -2.65
iter:  69 00:07:03 -3869.361857c -3.15  -2.70
Writing to output.gpw (mode='')

iter:  70 00:18:42 -3869.351240c -2.82  -2.69
iter:  71 00:30:24 -3869.372423c -2.29  -2.76
iter:  72 00:42:21 -3869.361945c -2.74  -2.77
iter:  73 00:54:01 -3869.365374c -2.62  -2.80
iter:  74 01:05:46 -3869.380726c -2.38  -2.78
Writing to output.gpw (mode='')

iter:  75 01:17:44 -3869.388694c -2.26  -2.79
iter:  76 01:29:30 -3869.363961c -3.10  -2.74
iter:  77 01:41:05 -3869.387124c -3.23  -2.77
iter:  78 01:52:50 -3869.363213c -3.16  -2.70
iter:  79 02:04:22 -3869.361999c -3.14  -2.72
Writing to output.gpw (mode='')

iter:  80 02:16:09 -3869.365367c -3.18  -2.68
iter:  81 02:27:55 -3869.378747c -3.38  -2.69
iter:  82 02:39:34 -3869.375669c -2.74  -2.68
iter:  83 02:51:16 -3869.387690c -2.58  -2.60
iter:  84 03:02:59 -3869.379545c -2.45  -2.56
Writing to output.gpw (mode='')

iter:  85 03:14:43 -3869.382817c -3.04  -2.57
iter:  86 03:26:17 -3869.379529c -2.05  -2.56
iter:  87 03:38:00 -3869.423514c -1.93  -2.83
iter:  88 03:49:38 -3869.416984c -1.87  -2.70
iter:  89 04:01:13 -3869.394423c -2.45  -2.62
Writing to output.gpw (mode='')

iter:  90 04:13:00 -3869.374876c -3.14  -2.59
iter:  91 04:24:46 -3869.362776c -3.14  -2.63
iter:  92 04:36:25 -3869.455043c -2.56  -2.72
iter:  93 04:48:14 -3869.319515c -2.02  -2.48
iter:  94 05:00:01 -3869.332258c -2.03  -2.62
Writing to output.gpw (mode='')

iter:  95 05:11:31 -3869.349481c -1.94  -2.67
iter:  96 05:23:10 -3869.355625c -2.36  -2.73
iter:  97 05:34:54 -3869.359596c -2.69  -2.76
iter:  98 05:46:17 -3869.355866c -3.06  -2.88
iter:  99 05:58:02 -3869.391154c -2.20  -2.89
Writing to output.gpw (mode='')

iter: 100 06:09:49 -3869.349824c -2.36  -2.70
iter: 101 06:21:35 -3869.359330c -2.17  -3.13
iter: 102 06:33:13 -3869.365331c -2.39  -3.11
iter: 103 06:44:56 -3869.365593c -2.69  -3.05
iter: 104 06:56:32 -3869.364110c -3.15  -3.03
Writing to output.gpw (mode='')

iter: 105 07:08:21 -3869.360525c -3.77  -3.03
iter: 106 07:19:54 -3869.360914c -3.94  -3.07
iter: 107 07:31:50 -3869.360133c -3.56  -3.07
iter: 108 07:43:27 -3869.361063c -3.17  -3.15
iter: 109 07:55:11 -3869.359695c -3.55  -3.19
Writing to output.gpw (mode='')

iter: 110 08:07:02 -3869.365327c -3.24  -3.36
iter: 111 08:18:54 -3869.361119c -3.66  -3.11
iter: 112 08:30:24 -3869.359349c -3.58  -3.17
iter: 113 08:42:17 -3869.359600c -4.13  -3.37
iter: 114 08:53:57 -3869.360164c -4.67  -3.43
Writing to output.gpw (mode='')

iter: 115 09:05:48 -3869.360080c -4.61  -3.40
iter: 116 09:17:44 -3869.360087c -4.06  -3.41
iter: 117 09:29:26 -3869.360029c -4.16  -3.44
iter: 118 09:41:10 -3869.361843c -3.70  -3.46
iter: 119 09:53:00 -3869.362164c -3.66  -3.34
Writing to output.gpw (mode='')

iter: 120 10:04:43 -3869.362693c -3.96  -3.30
iter: 121 10:16:24 -3869.360290c -4.25  -3.24
iter: 122 10:27:54 -3869.359929c -4.45  -3.30
iter: 123 10:39:39 -3869.359361c -3.92  -3.32
iter: 124 10:51:09 -3869.359770c -4.00  -3.62
Writing to output.gpw (mode='')

iter: 125 11:02:54 -3869.359833c -4.52  -3.65
iter: 126 11:14:41 -3869.360231c -3.97  -3.69
iter: 127 11:26:27 -3869.360348c -3.80  -3.66
iter: 128 11:38:18 -3869.360979c -4.05  -3.62
iter: 129 11:50:12 -3869.360829c -4.07  -3.44
Writing to output.gpw (mode='')

iter: 130 12:02:10 -3869.360536c -4.46  -3.39
iter: 131 12:13:48 -3869.360828c -4.65  -3.39
iter: 132 12:25:35 -3869.360011c -4.47  -3.37
iter: 133 12:37:10 -3869.359695c -4.50  -3.47
iter: 134 12:48:54 -3869.359764c -4.33  -3.54
Writing to output.gpw (mode='')

iter: 135 13:00:43 -3869.359994c -4.67  -3.58
iter: 136 13:12:38 -3869.359966c -4.96  -3.61
iter: 137 13:24:23 -3869.359899c -4.85  -3.61
iter: 138 13:35:53 -3869.359910c -4.55  -3.60
iter: 139 13:47:36 -3869.360085c -4.81  -3.60
Writing to output.gpw (mode='')

iter: 140 13:59:14 -3869.360028c -4.98  -3.73
iter: 141 14:11:08 -3869.359962c -5.07  -3.74
iter: 142 14:22:55 -3869.359983c -5.27  -3.75
iter: 143 14:34:56 -3869.359943c -5.39  -3.73
iter: 144 14:46:51 -3869.360002c -5.69  -3.79
Writing to output.gpw (mode='')

iter: 145 14:58:53 -3869.359890c -5.34  -3.76
iter: 146 15:10:36 -3869.360079c -4.31  -3.84
iter: 147 15:22:35 -3869.360131c -4.21  -3.82
iter: 148 15:34:22 -3869.360309c -4.44  -3.78
iter: 149 15:46:19 -3869.360127c -4.57  -3.71
Writing to output.gpw (mode='')

iter: 150 15:58:11 -3869.360698c -4.53  -3.69
iter: 151 16:09:54 -3869.360274c -4.80  -3.49
iter: 152 16:21:35 -3869.360913c -4.66  -3.49
iter: 153 16:33:10 -3869.361033c -4.41  -3.40
iter: 154 16:44:45 -3869.360551c -4.99  -3.37
Writing to output.gpw (mode='')

iter: 155 16:56:32 -3869.361230c -4.87  -3.37
iter: 156 17:08:15 -3869.360511c -4.41  -3.29
iter: 157 17:19:45 -3869.359712c -4.40  -3.31
iter: 158 17:31:23 -3869.361214c -4.20  -3.41
iter: 159 17:42:58 -3869.359513c -3.85  -3.30
Writing to output.gpw (mode='')

iter: 160 17:54:38 -3869.360558c -3.35  -3.51
iter: 161 18:06:16 -3869.359805c -4.01  -3.59
iter: 162 18:17:43 -3869.359911c -4.19  -3.88
iter: 163 18:29:34 -3869.359962c -4.33  -3.94
iter: 164 18:41:39 -3869.360071c -4.58  -3.93
Writing to output.gpw (mode='')

iter: 165 18:53:32 -3869.360101c -4.64  -3.85
iter: 166 19:05:20 -3869.359957c -5.19  -3.81
iter: 167 19:17:01 -3869.359980c -5.42  -3.84
iter: 168 19:28:53 -3869.359959c -5.28  -3.82
iter: 169 19:40:39 -3869.360115c -4.68  -3.86
Writing to output.gpw (mode='')

iter: 170 19:52:26 -3869.360144c -4.71  -3.86
iter: 171 20:04:12 -3869.360313c -4.76  -3.81
iter: 172 20:15:46 -3869.360442c -4.33  -3.71
iter: 173 20:27:31 -3869.360163c -5.00  -3.64
iter: 174 20:39:19 -3869.360856c -4.72  -3.65
Writing to output.gpw (mode='')

iter: 175 20:50:50 -3869.359822c -4.47  -3.42
iter: 176 21:02:21 -3869.360275c -4.96  -3.52
iter: 177 21:13:58 -3869.360113c -4.79  -3.49
iter: 178 21:25:47 -3869.360344c -4.86  -3.50
iter: 179 21:37:22 -3869.362954c -3.31  -3.45
Writing to output.gpw (mode='')

iter: 180 21:49:14 -3869.359639c -3.83  -3.20
iter: 181 22:00:59 -3869.358906c -3.88  -3.31
iter: 182 22:12:49 -3869.359372c -3.58  -3.48
iter: 183 22:24:50 -3869.359716c -4.17  -3.56
iter: 184 22:36:34 -3869.360003c -4.78  -3.62
Writing to output.gpw (mode='')

iter: 185 22:48:25 -3869.359822c -4.52  -3.62
iter: 186 23:00:20 -3869.360353c -3.80  -3.73
iter: 187 23:11:56 -3869.360543c -3.84  -3.80
iter: 188 23:23:37 -3869.360576c -4.20  -3.69
iter: 189 23:35:15 -3869.360174c -4.72  -3.62
Writing to output.gpw (mode='')

iter: 190 23:46:57 -3869.360734c -4.66  -3.65
iter: 191 23:58:50 -3869.360499c -4.70  -3.49
iter: 192 00:10:30 -3869.360450c -5.16  -3.48
iter: 193 00:22:20 -3869.359858c -4.61  -3.47
iter: 194 00:33:56 -3869.359861c -4.57  -3.66
Writing to output.gpw (mode='')

iter: 195 00:45:30 -3869.360440c -4.71  -3.69
iter: 196 00:57:12 -3869.359849c -4.29  -3.57
iter: 197 01:08:52 -3869.360247c -3.81  -3.68
iter: 198 01:20:22 -3869.359943c -4.61  -3.84
iter: 199 01:32:11 -3869.359946c -4.81  -4.03c
Writing to output.gpw (mode='')

iter: 200 01:44:00 -3869.359966c -4.84  -4.18c
iter: 201 01:55:38 -3869.359965c -5.72  -4.20c
iter: 202 02:07:22 -3869.360049c -5.21  -4.22c
iter: 203 02:19:17 -3869.360086c -4.91  -4.05c
iter: 204 02:31:01 -3869.360210c -4.96  -3.97
Writing to output.gpw (mode='')

iter: 205 02:42:57 -3869.359992c -5.61  -3.83
iter: 206 02:54:37 -3869.359971c -5.97  -3.89
iter: 207 03:06:13 -3869.359922c -5.37  -3.92
iter: 208 03:18:08 -3869.360055c -5.26  -4.03c
iter: 209 03:29:59 -3869.359969c -4.80  -3.97
Writing to output.gpw (mode='')

iter: 210 03:41:44 -3869.359988c -4.87  -4.25c
iter: 211 03:53:30 -3869.359985c -5.32  -4.26c
iter: 212 04:05:15 -3869.359972c -6.12  -4.31c
iter: 213 04:16:55 -3869.359971c -6.08  -4.33c
iter: 214 04:28:52 -3869.360006c -5.21  -4.37c
Writing to output.gpw (mode='')

iter: 215 04:40:40 -3869.360013c -5.09  -4.27c
iter: 216 04:52:22 -3869.359971c -5.05  -4.21c
iter: 217 05:03:46 -3869.359971c -5.54  -4.44c
iter: 218 05:15:31 -3869.359972c -6.04  -4.52c
iter: 219 05:27:26 -3869.359972c -5.94  -4.59c
Writing to output.gpw (mode='')

iter: 220 05:39:26 -3869.359973c -6.20  -4.63c
iter: 221 05:51:29 -3869.359980c -5.92  -4.60c
iter: 222 06:03:30 -3869.359988c -5.87  -4.49c
iter: 223 06:15:14 -3869.359978c -6.35  -4.40c
iter: 224 06:27:05 -3869.360032c -5.56  -4.39c
Writing to output.gpw (mode='')

iter: 225 06:39:15 -3869.360030c -5.75  -4.02c
iter: 226 06:51:15 -3869.360103c -5.61  -4.00c
iter: 227 07:03:14 -3869.360087c -5.24  -3.88
iter: 228 07:14:56 -3869.360048c -6.08  -3.86
iter: 229 07:26:38 -3869.360111c -5.84  -3.86
Writing to output.gpw (mode='')

iter: 230 07:38:30 -3869.360095c -5.84  -3.77
iter: 231 07:50:16 -3869.360462c -5.07  -3.76
iter: 232 08:02:08 -3869.359941c -4.94  -3.55
iter: 233 08:13:52 -3869.359946c -5.11  -3.63
iter: 234 08:25:45 -3869.360036c -5.27  -3.68
Writing to output.gpw (mode='')

iter: 235 08:37:31 -3869.360092c -5.40  -3.67
iter: 236 08:49:23 -3869.360293c -4.16  -3.66
iter: 237 09:01:09 -3869.360160c -4.48  -3.76
iter: 238 09:13:01 -3869.360034c -4.31  -3.76
iter: 239 09:24:50 -3869.360046c -4.34  -4.21c
Writing to output.gpw (mode='')

iter: 240 09:36:39 -3869.360021c -5.07  -4.13c
iter: 241 09:48:28 -3869.360122c -5.13  -4.10c
iter: 242 10:00:30 -3869.360001c -5.68  -3.94
iter: 243 10:12:22 -3869.360203c -5.25  -3.98
iter: 244 10:24:16 -3869.359871c -4.73  -3.73
Writing to output.gpw (mode='')

iter: 245 10:36:00 -3869.359925c -4.94  -3.91
iter: 246 10:47:52 -3869.359919c -5.34  -3.95
iter: 247 11:00:02 -3869.359940c -5.23  -4.04c
iter: 248 11:12:05 -3869.360064c -4.63  -4.09c
iter: 249 11:23:54 -3869.360094c -4.58  -4.06c
Writing to output.gpw (mode='')

iter: 250 11:35:53 -3869.360085c -4.84  -3.98
iter: 251 11:47:47 -3869.360105c -5.12  -3.93
iter: 252 11:59:45 -3869.360033c -5.32  -3.89
iter: 253 12:11:31 -3869.359962c -5.69  -3.90
iter: 254 12:23:36 -3869.360001c -5.55  -3.98
Writing to output.gpw (mode='')

iter: 255 12:35:26 -3869.360243c -4.38  -3.95
iter: 256 12:47:21 -3869.360070c -4.85  -3.80
iter: 257 12:59:02 -3869.360128c -5.31  -3.82
iter: 258 13:10:51 -3869.360217c -5.03  -3.79
iter: 259 13:22:37 -3869.360019c -5.62  -3.74
Writing to output.gpw (mode='')

iter: 260 13:34:34 -3869.360039c -4.78  -3.77
iter: 261 13:46:22 -3869.359917c -4.69  -3.76
iter: 262 13:58:07 -3869.359919c -4.35  -3.93
iter: 263 14:10:04 -3869.359980c -4.50  -4.33c
iter: 264 14:21:33 -3869.359987c -4.67  -4.40c
Writing to output.gpw (mode='')

iter: 265 14:33:06 -3869.359964c -5.59  -4.39c
iter: 266 14:44:56 -3869.359966c -5.70  -4.63c
iter: 267 14:56:42 -3869.359970c -6.01  -4.74c
iter: 268 15:08:37 -3869.359971c -6.37  -4.76c
iter: 269 15:20:11 -3869.359971c -6.25  -4.74c
Writing to output.gpw (mode='')

iter: 270 15:31:50 -3869.359972c -6.62  -4.81c
iter: 271 15:43:39 -3869.359984c -5.87  -4.76c
iter: 272 15:55:21 -3869.359971c -6.25  -4.37c
iter: 273 16:07:27 -3869.359980c -6.53  -4.45c
iter: 274 16:19:20 -3869.359987c -6.44  -4.40c
Writing to output.gpw (mode='')

iter: 275 16:31:13 -3869.359978c -6.56  -4.33c
iter: 276 16:42:56 -3869.359984c -5.38  -4.32c
iter: 277 16:54:37 -3869.359967c -5.74  -4.47c
iter: 278 17:06:25 -3869.359972c -5.92  -4.65c
iter: 279 17:18:18 -3869.359975c -5.44  -4.75c
Writing to output.gpw (mode='')

iter: 280 17:29:57 -3869.359981c -5.90  -4.72c
iter: 281 17:41:34 -3869.359979c -5.77  -4.56c
iter: 282 17:53:19 -3869.359972c -6.70  -4.52c
iter: 283 18:04:54 -3869.359974c -7.50c -4.61c

Converged after 283 iterations.

Dipole moment: (-19.009585, -19.009585, -0.001085) |e|*Ang

Energy contributions relative to reference atoms: (reference = -3113883.720283)

Kinetic:       +278.455246
Potential:     -204.993062
External:        +0.000000
XC:            -3937.124920
Entropy (-ST):   -0.000000
Local:           -5.697237
--------------------------
Free energy:   -3869.359974
Extrapolated:  -3869.359974

Dipole-layer corrected work functions: -inf, -inf eV

Showing only first 2 kpts
 Kpt  Band  Eigenvalues  Occupancy
  0   178     -2.68153    2.00000
  0   179     -2.59715    2.00000

  1   178     -2.72334    2.00000
  1   179     -2.67355    2.00000


Fermi level: inf

Writing to output.gpw (mode='')


Forces in eV/Ang:
  0 Sr    0.00972    0.00972    0.03715
  1 Sr    0.00000    0.01093    0.04161
  2 Sr   -0.00972    0.00972    0.03715
  3 Sr    0.01093    0.00000    0.04161
  4 Sr    0.00000    0.00000    0.03586
  5 Sr   -0.01093    0.00000    0.04161
  6 Sr    0.00972   -0.00972    0.03715
  7 Sr    0.00000   -0.01093    0.04161
  8 Sr   -0.00972   -0.00972    0.03715
  9 Sr    0.00000    0.00000    0.00478
 10 Sr    0.00241    0.00000    0.00220
 11 Sr   -0.00241    0.00000    0.00220
 12 Sr    0.00000    0.00241    0.00220
 13 Sr    0.00413    0.00413   -0.00007
 14 Sr   -0.00413    0.00413   -0.00007
 15 Sr    0.00000   -0.00241    0.00220
 16 Sr    0.00413   -0.00413   -0.00007
 17 Sr   -0.00413   -0.00413   -0.00007
 18 Sr   -0.00418   -0.00418    0.00098
 19 Sr    0.00000   -0.00211   -0.00130
 20 Sr    0.00418   -0.00418    0.00098
 21 Sr   -0.00211    0.00000   -0.00130
 22 Sr    0.00000    0.00000   -0.00305
 23 Sr    0.00211    0.00000   -0.00130
 24 Sr   -0.00418    0.00418    0.00098
 25 Sr    0.00000    0.00211   -0.00130
 26 Sr    0.00418    0.00418    0.00098
 27 Sr    0.00000    0.00000   -0.03699
 28 Sr   -0.01111    0.00000   -0.04266
 29 Sr    0.01111    0.00000   -0.04266
 30 Sr    0.00000   -0.01111   -0.04266
 31 Sr   -0.00937   -0.00937   -0.03860
 32 Sr    0.00937   -0.00937   -0.03860
 33 Sr    0.00000    0.01111   -0.04266
 34 Sr   -0.00937    0.00937   -0.03860
 35 Sr    0.00937    0.00937   -0.03860

Timing:                              incl.     excl.
-----------------------------------------------------------
Forces:                             24.674    24.674   0.0% |
Hamiltonian:                       174.802     0.000   0.0% |
 Atomic:                             0.453     0.007   0.0% |
  XC Correction:                     0.446     0.446   0.0% |
 Calculate atomic Hamiltonians:      0.517     0.517   0.0% |
 Communicate:                        0.392     0.392   0.0% |
 Hartree integrate/restrict:         0.082     0.082   0.0% |
 Poisson:                            4.535     1.604   0.0% |
  Communicate from 1D:               0.305     0.305   0.0% |
  Communicate from 2D:               1.509     1.509   0.0% |
  Communicate to 1D:                 0.271     0.271   0.0% |
  Communicate to 2D:                 0.236     0.236   0.0% |
  FFT 1D:                            0.287     0.287   0.0% |
  FFT 2D:                            0.323     0.323   0.0% |
 XC 3D grid:                       168.784     9.107   0.0% |
  VdW-DF integral:                 159.678     0.494   0.0% |
   Convolution:                      9.370     9.370   0.0% |
   FFT:                              1.999     1.999   0.0% |
   gather:                         108.975   108.975   0.1% |
   hmm1:                             1.380     1.380   0.0% |
   hmm2:                             3.105     3.105   0.0% |
   iFFT:                             2.329     2.329   0.0% |
   potential:                       14.776     0.072   0.0% |
    collect:                         2.505     2.505   0.0% |
    p1:                              5.671     5.671   0.0% |
    p2:                              3.885     3.885   0.0% |
    sum:                             2.643     2.643   0.0% |
   splines:                         17.249    17.249   0.0% |
 vbar:                               0.039     0.039   0.0% |
LCAO initialization:                21.979     0.125   0.0% |
 LCAO eigensolver:                   0.941     0.001   0.0% |
  Calculate projections:             0.000     0.000   0.0% |
  DenseAtomicCorrection:             0.000     0.000   0.0% |
  Distribute overlap matrix:         0.781     0.781   0.0% |
  Orbital Layouts:                   0.148     0.148   0.0% |
  Potential matrix:                  0.007     0.007   0.0% |
  Sum over cells:                    0.004     0.004   0.0% |
 LCAO to grid:                      20.345    20.345   0.0% |
 Set positions (LCAO WFS):           0.568     0.383   0.0% |
  Basic WFS set positions:           0.049     0.049   0.0% |
  Basis functions set positions:     0.001     0.001   0.0% |
  P tci:                             0.000     0.000   0.0% |
  ST tci:                            0.059     0.059   0.0% |
  mktci:                             0.075     0.075   0.0% |
Redistribute:                        0.014     0.014   0.0% |
SCF-cycle:                       199909.554   933.814   0.5% |
 Davidson:                       154939.432 36960.066  18.5% |------|
  Apply hamiltonian:              6432.559  6432.559   3.2% ||
  Subspace diag:                 20516.663     0.062   0.0% |
   calc_h_matrix:                 6569.085  3562.784   1.8% ||
    Apply hamiltonian:            3006.301  3006.301   1.5% ||
   diagonalize:                    416.739   416.739   0.2% |
   rotate_psi:                   13530.777 13530.777   6.8% |--|
  calc. matrices:                52747.970 37210.959  18.6% |------|
   Apply hamiltonian:            15537.010 15537.010   7.8% |--|
  diagonalize:                     460.697   460.697   0.2% |
  rotate_psi:                    37821.478 37821.478  18.9% |-------|
 Density:                          983.460     0.011   0.0% |
  Atomic density matrices:          73.462    73.462   0.0% |
  Mix:                              86.089    86.089   0.0% |
  Multipole moments:                 0.707     0.707   0.0% |
  Pseudo density:                  823.191   308.695   0.2% |
   Symmetrize density:             514.497   514.497   0.3% |
 Hamiltonian:                    43013.894     0.089   0.0% |
  Atomic:                          116.871    22.759   0.0% |
   XC Correction:                   94.112    94.112   0.0% |
  Calculate atomic Hamiltonians:    92.629    92.629   0.0% |
  Communicate:                     152.634   152.634   0.1% |
  Hartree integrate/restrict:       55.186    55.186   0.0% |
  Poisson:                         996.726   414.178   0.2% |
   Communicate from 1D:            110.701   110.701   0.1% |
   Communicate from 2D:            117.958   117.958   0.1% |
   Communicate to 1D:               65.017    65.017   0.0% |
   Communicate to 2D:              120.186   120.186   0.1% |
   FFT 1D:                          79.818    79.818   0.0% |
   FFT 2D:                          88.867    88.867   0.0% |
  XC 3D grid:                    41590.387  2533.203   1.3% ||
   VdW-DF integral:              39057.184   107.433   0.1% |
    Convolution:                  2875.086  2875.086   1.4% ||
    FFT:                           651.340   651.340   0.3% |
    gather:                      29251.390 29251.390  14.6% |-----|
    hmm1:                          557.741   557.741   0.3% |
    hmm2:                          776.728   776.728   0.4% |
    iFFT:                          642.689   642.689   0.3% |
    potential:                    4194.774    29.150   0.0% |
     collect:                      558.620   558.620   0.3% |
     p1:                          1639.953  1639.953   0.8% |
     p2:                          1112.332  1112.332   0.6% |
     sum:                          854.720   854.720   0.4% |
    splines:                         0.003     0.003   0.0% |
  vbar:                              9.371     9.371   0.0% |
 Orthonormalize:                    38.955     0.000   0.0% |
  calc_s_matrix:                     4.518     4.518   0.0% |
  inverse-cholesky:                 11.165    11.165   0.0% |
  projections:                       0.000     0.000   0.0% |
  rotate_psi_s:                     23.271    23.271   0.0% |
Set symmetry:                        0.022     0.022   0.0% |
Other:                              17.929    17.929   0.0% |
-----------------------------------------------------------
Total:                                     200148.972 100.0%

Memory usage: 3.03 GiB
Date: Tue Feb 14 18:05:21 2023
