
  ___ ___ ___ _ _ _  
 |   |   |_  | | | | 
 | | | | | . | | | | 
 |__ |  _|___|_____|  22.8.0
 |___|_|             

User:   vazumah@c15.hercules
Date:   Tue Jan 24 05:51:37 2023
Arch:   x86_64
Pid:    23582
CWD:    /home/vazumah/Python_projects/LiNRR/autocad_start/slab_experiments/free_slabs_big_vacuum/Ca/fcc111/substrate
Python: 3.10.8
gpaw:   /home/vazumah/.conda/envs/GPAW/lib/python3.10/site-packages/gpaw
_gpaw:  /home/vazumah/.conda/envs/GPAW/lib/python3.10/site-packages/
        _gpaw.cpython-310-x86_64-linux-gnu.so
ase:    /home/vazumah/.conda/envs/GPAW/lib/python3.10/site-packages/ase (version 3.22.1)
numpy:  /home/vazumah/.conda/envs/GPAW/lib/python3.10/site-packages/numpy (version 1.24.1)
scipy:  /home/vazumah/.conda/envs/GPAW/lib/python3.10/site-packages/scipy (version 1.10.0)
libxc:  5.2.3
units:  Angstrom and eV
cores: 24
OpenMP: True
OMP_NUM_THREADS: 1

Input parameters:
  h: 0.16
  kpts: {size: [4, 4, 1]}
  maxiter: 999
  occupations: {name: fermi-dirac,
                width: 0.05}
  poissonsolver: {dipolelayer: xy}
  xc: BEEF-vdW

System changes: positions, numbers, cell, pbc, initial_charges, initial_magmoms 

Initialize ...

species:
  Ca:
    name: Calcium
    id: 0641b8f64fa1d43c6d3de45527ace046
    Z: 20.0
    valence: 10
    core: 10
    charge: 0.0
    file: /home/vazumah/.conda/envs/GPAW/share/gpaw/Ca.PBE.gz
    compensation charges: {type: gauss,
                           rc: 0.37,
                           lmax: 2}
    cutoffs: {filter: 2.10,
              core: 1.17}
    valence states:
      #              energy  rcut
      - 3s(2.00)   -47.086   1.175
      - 4s(2.00)    -3.766   1.175
      - 3p(6.00)   -28.008   1.154
      -  p          -0.797   1.154
      -  d           0.000   0.937
  
    # Using partial waves for Ca as LCAO basis

Reference energy: -666391.292358  # eV

Spin-paired calculation

Convergence criteria:
 Maximum [total energy] change in last 3 cyles: 0.0005 eV / electron
 Maximum integral of absolute [dens]ity change: 0.0001 electrons / valence electron
 Maximum integral of absolute [eigenst]ate change: 4e-08 eV^2 / valence electron
 Maximum number of scf [iter]ations: 999
 (Square brackets indicate name in SCF output, whereas a 'c' in
 the SCF output indicates the quantity has converged.)

Symmetries present (total): 12

  ( 1  0  0)  ( 1  0  0)  ( 1 -1  0)  ( 1 -1  0)  ( 0  1  0)  ( 0  1  0)
  ( 1 -1  0)  ( 0  1  0)  ( 1  0  0)  ( 0 -1  0)  ( 1  0  0)  (-1  1  0)
  ( 0  0 -1)  ( 0  0  1)  ( 0  0 -1)  ( 0  0  1)  ( 0  0  1)  ( 0  0 -1)

  ( 0 -1  0)  ( 0 -1  0)  (-1  1  0)  (-1  1  0)  (-1  0  0)  (-1  0  0)
  ( 1 -1  0)  (-1  0  0)  ( 0  1  0)  (-1  0  0)  ( 0 -1  0)  (-1  1  0)
  ( 0  0  1)  ( 0  0 -1)  ( 0  0 -1)  ( 0  0  1)  ( 0  0 -1)  ( 0  0  1)
Note: your k-points are not as symmetric as your crystal!

16 k-points: 4 x 4 x 1 Monkhorst-Pack grid
6 k-points in the irreducible part of the Brillouin zone
       k-points in crystal coordinates                weights
   0:     0.12500000   -0.12500000    0.00000000          2/16
   1:     0.12500000    0.12500000    0.00000000          2/16
   2:     0.37500000   -0.37500000    0.00000000          2/16
   3:     0.37500000   -0.12500000    0.00000000          4/16
   4:     0.37500000    0.12500000    0.00000000          4/16
   5:     0.37500000    0.37500000    0.00000000          2/16

Wave functions: Uniform real-space grid
  Kinetic energy operator: 8*3+1=25 point O(h^6) finite-difference Laplacian
  ScaLapack parameters: grid=1x1, blocksize=None
  Wavefunction extrapolation:
    Improved wavefunction reuse through dual PAW basis 

Occupation numbers: Fermi-Dirac:
  width: 0.0500  # eV
 

Eigensolver
   Davidson(niter=2) 

Densities:
  Coarse grid: 64*64*184 grid
  Fine grid: 128*128*368 grid
  Total Charge: 0.000000 

Density mixing:
  Method: separate
  Backend: pulay
  Linear mixing parameter: 0.05
  old densities: 5
  Damping of long wavelength oscillations: 50 

Hamiltonian:
  XC and Coulomb potentials evaluated on a 128*128*368 grid
  Using the BEEF-vdW Exchange-Correlation functional
  Interpolation: tri-quintic (5. degree polynomial)
  Poisson solver: FastPoissonSolver using
    Stencil: 8*3+1=25 point O(h^6) finite-difference Laplacian
    FFT axes: [0, 1]
    FST axes: [2]

Dipole correction along z-axis 

XC parameters: BEEF-vdW with 2 nearest neighbor stencil

Memory estimate:
  Process memory now: 216.86 MiB
  Calculator: 1174.99 MiB
    Density: 107.33 MiB
      Arrays: 36.94 MiB
      Localized functions: 56.33 MiB
      Mixer: 14.06 MiB
    Hamiltonian: 28.60 MiB
      Arrays: 24.16 MiB
      XC: 0.00 MiB
      Poisson: 0.00 MiB
      vbar: 4.45 MiB
    Wavefunctions: 1039.06 MiB
      Arrays psit_nG: 506.25 MiB
      Eigensolver: 525.26 MiB
      Projections: 0.32 MiB
      Projectors: 7.22 MiB

Total number of cores used: 24
Parallelization over k-points: 6
Domain decomposition: 1 x 1 x 4

Number of atoms: 36
Number of atomic orbitals: 180
Number of bands in calculation: 180
Number of valence electrons: 360
Bands to converge: occupied

... initialized

Initializing position-dependent things.

Density initialized from atomic densities
Creating initial wave functions:
  180 bands from LCAO basis set

                                                        
                                                        
                                                        
                                                        
                                                        
                     Ca        Ca        Ca             
                                                        
              Ca        Ca        Ca                    
                      Ca        Ca        Ca            
       Ca        Ca        Ca                           
                Ca       Ca        Ca                   
                                                        
         Ca       Ca       CCa      Ca        Ca        
                                                        
                                                        
                    Ca       Ca        Ca               
                                                        
             Ca      CCa       CCa       Ca             
                                                        
              Ca        Ca        Ca                    
                                                        
       Ca        Ca        Ca                           
                                                        
                                                        
                                                        
                                                        

Positions:
   0 Ca     0.000000    0.000000   10.000000    ( 0.0000,  0.0000,  0.0000)
   1 Ca     3.945656    0.000000   10.000000    ( 0.0000,  0.0000,  0.0000)
   2 Ca     7.891312    0.000000   10.000000    ( 0.0000,  0.0000,  0.0000)
   3 Ca     1.972828    3.417038   10.000000    ( 0.0000,  0.0000,  0.0000)
   4 Ca     5.918484    3.417038   10.000000    ( 0.0000,  0.0000,  0.0000)
   5 Ca     9.864140    3.417038   10.000000    ( 0.0000,  0.0000,  0.0000)
   6 Ca     3.945656    6.834076   10.000000    ( 0.0000,  0.0000,  0.0000)
   7 Ca     7.891312    6.834076   10.000000    ( 0.0000,  0.0000,  0.0000)
   8 Ca    11.836968    6.834076   10.000000    ( 0.0000,  0.0000,  0.0000)
   9 Ca     1.972828    1.139013   13.221615    ( 0.0000,  0.0000,  0.0000)
  10 Ca     5.918484    1.139013   13.221615    ( 0.0000,  0.0000,  0.0000)
  11 Ca     9.864140    1.139013   13.221615    ( 0.0000,  0.0000,  0.0000)
  12 Ca     3.945656    4.556051   13.221615    ( 0.0000,  0.0000,  0.0000)
  13 Ca     7.891312    4.556051   13.221615    ( 0.0000,  0.0000,  0.0000)
  14 Ca    11.836968    4.556051   13.221615    ( 0.0000,  0.0000,  0.0000)
  15 Ca     5.918484    7.973089   13.221615    ( 0.0000,  0.0000,  0.0000)
  16 Ca     9.864140    7.973089   13.221615    ( 0.0000,  0.0000,  0.0000)
  17 Ca    13.809795    7.973089   13.221615    ( 0.0000,  0.0000,  0.0000)
  18 Ca     0.000000    2.278025   16.443229    ( 0.0000,  0.0000,  0.0000)
  19 Ca     3.945656    2.278025   16.443229    ( 0.0000,  0.0000,  0.0000)
  20 Ca     7.891312    2.278025   16.443229    ( 0.0000,  0.0000,  0.0000)
  21 Ca     1.972828    5.695064   16.443229    ( 0.0000,  0.0000,  0.0000)
  22 Ca     5.918484    5.695064   16.443229    ( 0.0000,  0.0000,  0.0000)
  23 Ca     9.864140    5.695064   16.443229    ( 0.0000,  0.0000,  0.0000)
  24 Ca     3.945656    9.112102   16.443229    ( 0.0000,  0.0000,  0.0000)
  25 Ca     7.891312    9.112102   16.443229    ( 0.0000,  0.0000,  0.0000)
  26 Ca    11.836968    9.112102   16.443229    ( 0.0000,  0.0000,  0.0000)
  27 Ca     0.000000    0.000000   19.664844    ( 0.0000,  0.0000,  0.0000)
  28 Ca     3.945656    0.000000   19.664844    ( 0.0000,  0.0000,  0.0000)
  29 Ca     7.891312    0.000000   19.664844    ( 0.0000,  0.0000,  0.0000)
  30 Ca     1.972828    3.417038   19.664844    ( 0.0000,  0.0000,  0.0000)
  31 Ca     5.918484    3.417038   19.664844    ( 0.0000,  0.0000,  0.0000)
  32 Ca     9.864140    3.417038   19.664844    ( 0.0000,  0.0000,  0.0000)
  33 Ca     3.945656    6.834076   19.664844    ( 0.0000,  0.0000,  0.0000)
  34 Ca     7.891312    6.834076   19.664844    ( 0.0000,  0.0000,  0.0000)
  35 Ca    11.836968    6.834076   19.664844    ( 0.0000,  0.0000,  0.0000)

Unit cell:
           periodic     x           y           z      points  spacing
  1. axis:    yes   11.836968    0.000000    0.000000    64     0.1602
  2. axis:    yes    5.918484   10.251115    0.000000    64     0.1602
  3. axis:    no     0.000000    0.000000   29.664844   184     0.1612

  Lengths:  11.836968  11.836968  29.664844
  Angles:   90.000000  90.000000  60.000000

Effective grid spacing dv^(1/3) = 0.1684

     iter     time        total  log10-change:
                         energy  eigst   dens
iter:   1 06:03:15 -1557.214069
iter:   2 06:13:03 -1567.458075  +0.88  -1.63
iter:   3 06:22:27 -1573.904023  +0.70  -1.63
iter:   4 06:32:02 -1579.214777  +0.51  -1.60
Writing to output.gpw (mode='')

iter:   5 06:41:30 -1585.501138  +0.61  -1.72
iter:   6 06:51:05 -1585.773653  +0.12  -1.73
iter:   7 07:00:29 -1585.741505  -0.12  -1.72
iter:   8 07:09:01 -1586.922968  -0.40  -1.73
iter:   9 07:18:26 -1589.175313  +0.79  -1.68
Writing to output.gpw (mode='')

iter:  10 07:28:08 -1587.753054  -0.06  -1.81
iter:  11 07:37:00 -1591.872941  +0.49  -1.91
iter:  12 07:46:12 -1598.781583  +0.65  -1.67
iter:  13 07:55:56 -1585.872677  +0.24  -1.43
iter:  14 08:05:02 -1587.423425  +0.67  -1.62
Writing to output.gpw (mode='')

iter:  15 08:14:33 -1589.508465  +0.43  -1.86
iter:  16 08:24:12 -1588.675706  -0.94  -1.78
iter:  17 08:33:41 -1588.434236  -1.33  -1.78
iter:  18 08:43:16 -1588.292761  -1.21  -1.81
iter:  19 08:52:45 -1592.102962  +0.52  -1.89
Writing to output.gpw (mode='')

iter:  20 09:02:25 -1594.480501  -0.04  -1.60
iter:  21 09:11:57 -1587.749243  -0.22  -1.51
iter:  22 09:21:29 -1590.653521  -0.93  -1.64
iter:  23 09:31:00 -1590.639850  +0.70  -1.59
iter:  24 09:40:48 -1592.030977  +0.01  -1.71
Writing to output.gpw (mode='')

iter:  25 09:50:36 -1588.352359  +0.61  -1.65
iter:  26 10:00:08 -1588.906695  -0.29  -2.21
iter:  27 10:09:43 -1589.578439  -0.21  -2.16
iter:  28 10:19:24 -1588.828404  -1.77  -2.00
iter:  29 10:28:56 -1592.815834  +0.55  -2.07
Writing to output.gpw (mode='')

iter:  30 10:38:43 -1591.921036  -0.53  -1.58
iter:  31 10:48:34 -1594.944590  +0.03  -1.57
iter:  32 10:58:05 -1594.869978  -0.35  -1.48
iter:  33 11:07:33 -1592.311762  -1.16  -1.45
iter:  34 11:16:56 -1590.788585  -1.04  -1.45
Writing to output.gpw (mode='')

iter:  35 11:26:37 -1591.252433  -1.46  -1.47
iter:  36 11:35:35 -1688.096464  +0.96  -1.47
iter:  37 11:45:03 -1563.158853  +0.99  -0.86
iter:  38 11:54:21 -1567.791185  +0.63  -1.03
iter:  39 12:03:50 -1571.458079  +0.66  -1.08
Writing to output.gpw (mode='')

iter:  40 12:13:20 -1570.225061  +0.85  -1.15
iter:  41 12:23:00 -1574.052503  +1.11  -1.27
iter:  42 12:32:27 -1584.616432  +1.25  -1.51
iter:  43 12:42:03 -1588.760256  +0.64  -1.90
iter:  44 12:51:23 -1588.446119  -0.04  -1.82
Writing to output.gpw (mode='')

iter:  45 12:59:58 -1589.208820  -0.17  -1.83
iter:  46 13:09:35 -1587.869009  -0.36  -1.77
iter:  47 13:18:56 -1588.421177  +0.30  -1.93
iter:  48 13:28:24 -1588.910853  -0.25  -2.27
iter:  49 13:38:04 -1590.066706  -0.05  -2.12
Writing to output.gpw (mode='')

iter:  50 13:47:25 -1589.189699  -1.17  -1.88
iter:  51 13:56:57 -1589.782436  -0.74  -1.87
iter:  52 14:06:08 -1589.309811  -1.35  -1.80
iter:  53 14:14:30 -1588.629522  -0.83  -1.80
iter:  54 14:23:59 -1589.100806  +0.26  -1.89
Writing to output.gpw (mode='')

iter:  55 14:33:36 -1589.019942  -0.22  -2.08
iter:  56 14:41:22 -1590.339470  +0.08  -2.37
iter:  57 14:51:01 -1590.063551  -0.72  -1.95
iter:  58 15:00:07 -1589.091452  -1.81  -1.89
iter:  59 15:08:28 -1588.766643  -1.07  -1.94
Writing to output.gpw (mode='')

iter:  60 15:18:10 -1588.760646  -1.07  -2.02
iter:  61 15:27:58 -1588.798062c -1.10  -2.09
iter:  62 15:36:17 -1591.006699  +0.30  -2.15
iter:  63 15:46:03 -1589.373670  -0.87  -1.70
iter:  64 15:55:47 -1589.153779  -0.99  -1.78
Writing to output.gpw (mode='')

iter:  65 16:05:29 -1588.718758  -0.52  -1.82
iter:  66 16:13:01 -1588.757048  -0.75  -1.95
iter:  67 16:20:09 -1589.766231  +0.28  -2.07
iter:  68 16:29:42 -1588.842541  -1.01  -2.03
iter:  69 16:39:14 -1588.923816  -1.50  -2.20
Writing to output.gpw (mode='')

iter:  70 16:48:41 -1588.925487c -0.52  -2.26
iter:  71 16:58:26 -1588.995116c -1.09  -2.60
iter:  72 17:07:58 -1589.024981c -1.42  -2.61
iter:  73 17:17:41 -1589.275789  -0.40  -2.56
iter:  74 17:26:09 -1589.013862  -2.05  -2.26
Writing to output.gpw (mode='')

iter:  75 17:35:51 -1589.146061  -1.62  -2.34
iter:  76 17:45:26 -1588.923718  -1.06  -2.25
iter:  77 17:54:58 -1588.976940  -0.97  -2.61
iter:  78 18:04:44 -1589.010919c -1.40  -2.90
iter:  79 18:13:41 -1588.979969c -2.60  -2.80
Writing to output.gpw (mode='')

iter:  80 18:20:39 -1589.007645c -1.33  -2.91
iter:  81 18:29:32 -1589.004248c -2.26  -2.81
iter:  82 18:39:07 -1589.001780c -1.28  -2.76
iter:  83 18:48:57 -1589.001339c -2.27  -2.91
iter:  84 18:58:46 -1588.984566c -2.08  -2.86
Writing to output.gpw (mode='')

iter:  85 19:08:28 -1588.994090c -1.87  -3.10
iter:  86 19:17:14 -1589.010157c -1.59  -3.10
iter:  87 19:26:42 -1589.025282c -1.86  -2.88
iter:  88 19:36:13 -1588.986889c -2.33  -2.72
iter:  89 19:45:41 -1588.987948c -2.40  -2.92
Writing to output.gpw (mode='')

iter:  90 19:54:44 -1588.993470c -1.80  -3.04
iter:  91 20:04:24 -1588.994692c -2.73  -3.36
iter:  92 20:13:58 -1588.994096c -2.98  -3.34
iter:  93 20:23:29 -1588.999087c -2.33  -3.48
iter:  94 20:33:03 -1589.002768c -2.52  -3.20
Writing to output.gpw (mode='')

iter:  95 20:42:32 -1589.006164c -2.58  -3.03
iter:  96 20:51:59 -1588.996275c -2.95  -2.93
iter:  97 21:01:19 -1589.006481c -2.73  -3.04
iter:  98 21:10:57 -1588.994794c -2.58  -2.89
iter:  99 21:20:29 -1588.995472c -2.38  -3.09
Writing to output.gpw (mode='')

iter: 100 21:29:57 -1589.004228c -1.82  -3.36
iter: 101 21:39:38 -1588.998218c -2.80  -3.18
iter: 102 21:49:02 -1589.002495c -2.19  -3.64
iter: 103 21:58:28 -1589.000012c -3.52  -3.39
iter: 104 22:07:21 -1588.999979c -3.27  -3.52
Writing to output.gpw (mode='')

iter: 105 22:16:52 -1589.000413c -3.04  -3.66
iter: 106 22:26:27 -1589.001013c -3.12  -3.92
iter: 107 22:35:58 -1589.001235c -3.48  -3.90
iter: 108 22:45:33 -1589.002774c -2.85  -4.03c
iter: 109 22:55:17 -1589.003067c -3.50  -3.40
Writing to output.gpw (mode='')

iter: 110 23:05:02 -1589.004727c -3.02  -3.37
iter: 111 23:13:44 -1589.006237c -2.93  -3.22
iter: 112 23:21:57 -1589.004550c -3.44  -3.11
iter: 113 23:31:38 -1589.004246c -3.59  -3.13
iter: 114 23:41:12 -1589.003370c -2.82  -3.15
Writing to output.gpw (mode='')

iter: 115 23:50:46 -1589.003728c -3.17  -3.50
iter: 116 23:59:19 -1589.005384c -3.13  -3.67
iter: 117 00:08:09 -1589.005092c -2.75  -3.46
iter: 118 00:17:56 -1589.007026c -2.67  -3.78
iter: 119 00:27:22 -1589.006488c -2.59  -3.46
Writing to output.gpw (mode='')

iter: 120 00:37:07 -1589.006558c -3.55  -3.81
iter: 121 00:46:52 -1589.008589c -2.69  -3.79
iter: 122 00:56:31 -1589.008699c -3.28  -3.36
iter: 123 01:06:22 -1589.009161c -3.35  -3.30
iter: 124 01:15:58 -1589.009015c -3.17  -3.25
Writing to output.gpw (mode='')

iter: 125 01:25:26 -1589.009093c -3.18  -3.24
iter: 126 01:34:59 -1589.027947c -2.17  -3.27
iter: 127 01:44:31 -1589.009088c -2.29  -2.71
iter: 128 01:54:18 -1589.010584c -2.88  -2.90
iter: 129 02:03:54 -1589.011325c -2.95  -2.95
Writing to output.gpw (mode='')

iter: 130 02:12:27 -1589.012031c -2.66  -3.02
iter: 131 02:21:57 -1589.013836c -2.82  -3.15
iter: 132 02:31:46 -1589.016164c -2.25  -3.25
iter: 133 02:41:39 -1589.023004c -2.03  -3.58
iter: 134 02:51:21 -1589.025561c -2.55  -3.37
Writing to output.gpw (mode='')

iter: 135 03:01:01 -1589.025816c -2.40  -3.19
iter: 136 03:10:42 -1589.029077c -2.80  -3.28
iter: 137 03:19:52 -1589.037636c -2.14  -3.18
iter: 138 03:29:25 -1589.040876c -2.54  -2.92
iter: 139 03:39:08 -1589.046282c -2.45  -2.84
Writing to output.gpw (mode='')

iter: 140 03:48:47 -1589.036838c -2.45  -2.76
iter: 141 03:58:49 -1589.035581c -2.80  -2.83
iter: 142 04:08:11 -1589.038155c -3.11  -2.89
iter: 143 04:17:25 -1589.043444c -2.61  -2.91
iter: 144 04:26:08 -1589.109778c -1.68  -2.87
Writing to output.gpw (mode='')

iter: 145 04:35:15 -1589.043829c -2.00  -2.39
iter: 146 04:44:09 -1589.079303c -2.68  -2.50
iter: 147 04:52:47 -1589.050468c -2.14  -2.47
iter: 148 04:59:14 -1589.048512c -2.40  -2.58
iter: 149 05:07:51 -1589.043898c -1.76  -2.63
Writing to output.gpw (mode='')

iter: 150 05:13:48 -1589.050454c -1.78  -2.88
iter: 151 05:23:34 -1589.055611c -2.25  -3.21
iter: 152 05:33:18 -1589.058156c -2.56  -3.27
iter: 153 05:42:53 -1589.058829c -2.50  -3.23
iter: 154 05:52:29 -1589.066585c -2.06  -3.33
Writing to output.gpw (mode='')

iter: 155 06:02:24 -1589.066525c -2.93  -3.18
iter: 156 06:12:02 -1589.083329c -1.90  -3.14
iter: 157 06:21:36 -1589.067822c -2.54  -2.80
iter: 158 06:31:15 -1589.077076c -2.87  -2.90
iter: 159 06:41:01 -1589.090265c -2.20  -2.85
Writing to output.gpw (mode='')

iter: 160 06:48:53 -1589.077867c -2.67  -2.72
iter: 161 06:53:55 -1589.094275c -2.37  -2.77
iter: 162 06:58:55 -1589.088201c -2.90  -2.68
iter: 163 07:03:56 -1589.075871c -1.86  -2.68
iter: 164 07:10:03 -1589.079953c -2.54  -3.15
Writing to output.gpw (mode='')

iter: 165 07:17:39 -1589.083113c -2.56  -3.17
iter: 166 07:27:11 -1589.084417c -2.64  -3.19
iter: 167 07:36:54 -1589.087274c -2.60  -3.58
iter: 168 07:46:32 -1589.088809c -2.80  -3.42
iter: 169 07:56:23 -1589.089719c -2.92  -3.31
Writing to output.gpw (mode='')

iter: 170 08:06:08 -1589.090490c -3.09  -3.26
iter: 171 08:15:48 -1589.091531c -3.16  -3.23
iter: 172 08:25:28 -1589.092027c -3.08  -3.19
iter: 173 08:35:01 -1589.093759c -2.37  -3.18
iter: 174 08:43:49 -1589.095968c -2.95  -3.26
Writing to output.gpw (mode='')

iter: 175 08:53:23 -1589.099374c -2.54  -3.24
iter: 176 09:03:02 -1589.100290c -3.15  -3.16
iter: 177 09:11:23 -1589.104051c -2.16  -3.12
iter: 178 09:20:28 -1589.106737c -2.88  -3.19
iter: 179 09:30:03 -1589.107789c -3.05  -3.12
Writing to output.gpw (mode='')

iter: 180 09:39:40 -1589.106994c -2.45  -3.09
iter: 181 09:49:18 -1589.109661c -2.44  -3.27
iter: 182 09:58:44 -1589.110760c -2.86  -3.38
iter: 183 10:08:37 -1589.113774c -2.25  -3.44
iter: 184 10:18:27 -1589.114574c -3.06  -3.57
Writing to output.gpw (mode='')

iter: 185 10:28:08 -1589.115523c -3.13  -3.58
iter: 186 10:37:32 -1589.116447c -3.16  -3.55
iter: 187 10:47:03 -1589.117971c -2.64  -3.52
iter: 188 10:56:53 -1589.120235c -2.56  -3.54
iter: 189 11:06:19 -1589.123862c -2.45  -3.54
Writing to output.gpw (mode='')

iter: 190 11:15:51 -1589.124840c -3.05  -3.40
iter: 191 11:25:31 -1589.126322c -2.87  -3.37
iter: 192 11:35:02 -1589.128452c -2.63  -3.33
iter: 193 11:44:47 -1589.129728c -2.91  -3.27
iter: 194 11:54:19 -1589.137512c -2.22  -3.23
Writing to output.gpw (mode='')

iter: 195 12:03:59 -1589.134709c -2.56  -2.99
iter: 196 12:13:34 -1589.136981c -3.09  -3.12
iter: 197 12:22:38 -1589.137787c -3.10  -3.12
iter: 198 12:32:27 -1589.140299c -3.00  -3.14
iter: 199 12:42:16 -1589.150660c -2.28  -3.12
Writing to output.gpw (mode='')

iter: 200 12:51:57 -1589.148368c -3.01  -2.86
iter: 201 13:00:29 -1589.166506c -2.04  -2.87
iter: 202 13:08:23 -1589.170966c -2.70  -2.67
iter: 203 13:17:59 -1589.170958c -2.88  -2.63
iter: 204 13:27:36 -1589.144630c -1.92  -2.61
Writing to output.gpw (mode='')

iter: 205 13:37:21 -1589.148467c -2.50  -2.85
iter: 206 13:47:16 -1589.149953c -2.56  -2.93
iter: 207 13:57:10 -1589.152559c -2.38  -3.01
iter: 208 14:06:46 -1589.159480c -1.90  -3.10
iter: 209 14:16:36 -1589.162423c -2.39  -3.16
Writing to output.gpw (mode='')

iter: 210 14:26:09 -1589.159878c -2.77  -3.11
iter: 211 14:35:40 -1589.160222c -2.69  -3.17
iter: 212 14:45:12 -1589.161894c -2.71  -3.24
iter: 213 14:54:51 -1589.163994c -3.01  -3.29
iter: 214 15:04:39 -1589.166222c -2.25  -3.25
Writing to output.gpw (mode='')

iter: 215 15:14:17 -1589.170329c -2.38  -3.49
iter: 216 15:21:56 -1589.171619c -2.96  -3.30
iter: 217 15:31:41 -1589.175548c -2.56  -3.22
iter: 218 15:40:35 -1589.175034c -3.02  -3.07
iter: 219 15:50:03 -1589.177555c -2.84  -3.03
Writing to output.gpw (mode='')

iter: 220 15:59:19 -1589.178087c -2.96  -2.97
iter: 221 16:08:58 -1589.175364c -2.58  -2.94
iter: 222 16:18:28 -1589.174839c -2.51  -3.00
iter: 223 16:27:30 -1589.177371c -3.11  -3.19
iter: 224 16:37:17 -1589.177802c -3.01  -3.19
Writing to output.gpw (mode='')

iter: 225 16:46:51 -1589.179554c -2.74  -3.23
iter: 226 16:56:33 -1589.181623c -2.37  -3.27
iter: 227 17:06:12 -1589.181550c -2.95  -3.29
iter: 228 17:15:46 -1589.189256c -2.08  -3.36
iter: 229 17:25:24 -1589.204308c -2.08  -3.02
Writing to output.gpw (mode='')

iter: 230 17:33:48 -1589.185542c -2.73  -2.77
iter: 231 17:43:21 -1589.198883c -2.82  -2.87
iter: 232 17:52:15 -1589.190003c -2.88  -2.79
iter: 233 18:00:10 -1589.188821c -2.87  -2.83
iter: 234 18:09:52 -1589.209735c -2.19  -2.87
Writing to output.gpw (mode='')

iter: 235 18:19:25 -1589.207157c -3.07  -2.70
iter: 236 18:28:49 -1589.235579c -1.89  -2.68
iter: 237 18:38:06 -1589.187794c -2.27  -2.51
iter: 238 18:47:45 -1589.199783c -3.34  -2.65
iter: 239 18:57:22 -1589.211459c -3.17  -2.65
Writing to output.gpw (mode='')

iter: 240 19:06:55 -1589.193393c -1.56  -2.62
iter: 241 19:15:59 -1589.239408c -1.48  -3.23
iter: 242 19:23:16 -1589.199991c -2.84  -2.71
iter: 243 19:31:01 -1589.192577c -1.67  -2.80
iter: 244 19:40:13 -1589.195946c -2.61  -3.50
Writing to output.gpw (mode='')

iter: 245 19:49:15 -1589.196745c -3.44  -3.57
iter: 246 19:56:12 -1589.198229c -2.76  -3.60
iter: 247 20:05:44 -1589.197544c -3.38  -3.49
iter: 248 20:15:19 -1589.197868c -3.17  -3.66
iter: 249 20:24:47 -1589.198734c -2.94  -3.77
Writing to output.gpw (mode='')

iter: 250 20:32:09 -1589.205024c -2.25  -3.60
iter: 251 20:41:20 -1589.204081c -3.19  -3.00
iter: 252 20:50:27 -1589.198312c -2.45  -2.98
iter: 253 20:57:19 -1589.199467c -3.24  -3.36
iter: 254 21:05:16 -1589.203074c -2.13  -3.41
Writing to output.gpw (mode='')

iter: 255 21:12:17 -1589.205427c -2.63  -3.31
iter: 256 21:21:50 -1589.201782c -3.56  -3.13
iter: 257 21:28:28 -1589.200614c -3.06  -3.19
iter: 258 21:36:26 -1589.201790c -2.41  -3.34
iter: 259 21:45:55 -1589.202378c -3.17  -3.76
Writing to output.gpw (mode='')

iter: 260 21:54:44 -1589.202567c -3.49  -3.56
iter: 261 22:02:08 -1589.202027c -3.74  -3.49
iter: 262 22:10:28 -1589.202397c -3.89  -3.56
iter: 263 22:19:55 -1589.202420c -3.73  -3.52
iter: 264 22:27:39 -1589.203274c -2.81  -3.53
Writing to output.gpw (mode='')

iter: 265 22:36:08 -1589.203095c -3.80  -3.51
iter: 266 22:45:44 -1589.203156c -3.92  -3.52
iter: 267 22:55:28 -1589.202913c -3.37  -3.52
iter: 268 23:05:00 -1589.203427c -3.12  -3.79
iter: 269 23:14:33 -1589.203373c -3.80  -3.80
Writing to output.gpw (mode='')

iter: 270 23:24:03 -1589.204034c -3.05  -3.89
iter: 271 23:33:24 -1589.203861c -4.07  -3.59
iter: 272 23:40:10 -1589.204882c -3.19  -3.59
iter: 273 23:48:05 -1589.205962c -3.16  -3.35
iter: 274 23:57:24 -1589.205167c -4.04  -3.20
Writing to output.gpw (mode='')

iter: 275 00:03:54 -1589.204775c -3.92  -3.20
iter: 276 00:13:11 -1589.203895c -3.18  -3.21
iter: 277 00:22:30 -1589.206436c -3.21  -3.48
iter: 278 00:31:30 -1589.203690c -3.45  -3.20
iter: 279 00:39:55 -1589.206758c -2.16  -3.38
Writing to output.gpw (mode='')

iter: 280 00:48:22 -1589.205119c -3.68  -3.34
iter: 281 00:54:47 -1589.204535c -2.83  -3.40
iter: 282 01:04:31 -1589.204819c -3.55  -3.98
iter: 283 01:14:21 -1589.204819c -4.15  -3.81
iter: 284 01:22:12 -1589.204695c -4.31  -3.75
Writing to output.gpw (mode='')

iter: 285 01:27:18 -1589.204970c -3.79  -3.87
iter: 286 01:32:39 -1589.206064c -3.07  -3.69
iter: 287 01:41:44 -1589.205238c -4.22  -3.33
iter: 288 01:51:11 -1589.204711c -3.19  -3.37
iter: 289 02:00:16 -1589.204914c -4.33  -3.99
Writing to output.gpw (mode='')

iter: 290 02:09:42 -1589.206153c -3.15  -3.93
iter: 291 02:18:10 -1589.205012c -4.09  -3.37
iter: 292 02:27:36 -1589.204819c -3.46  -3.47
iter: 293 02:37:04 -1589.204966c -4.06  -3.70
iter: 294 02:46:43 -1589.205026c -3.99  -3.79
Writing to output.gpw (mode='')

iter: 295 02:56:24 -1589.205471c -3.10  -3.97
iter: 296 03:05:56 -1589.205380c -4.20  -3.76
iter: 297 03:15:26 -1589.205402c -4.40  -3.74
iter: 298 03:25:06 -1589.205366c -4.49  -3.71
iter: 299 03:34:35 -1589.205399c -4.64  -3.71
Writing to output.gpw (mode='')

iter: 300 03:44:04 -1589.205299c -3.87  -3.70
iter: 301 03:53:39 -1589.205390c -4.63  -3.94
iter: 302 04:03:11 -1589.206552c -3.08  -3.91
iter: 303 04:12:28 -1589.205499c -4.07  -3.32
iter: 304 04:21:43 -1589.205136c -3.19  -3.41
Writing to output.gpw (mode='')

iter: 305 04:31:24 -1589.205347c -3.43  -3.82
iter: 306 04:40:50 -1589.205471c -3.83  -4.38c
iter: 307 04:50:26 -1589.205549c -4.01  -4.43c
iter: 308 05:00:05 -1589.205638c -4.05  -4.14c
iter: 309 05:09:32 -1589.205809c -3.81  -3.93
Writing to output.gpw (mode='')

iter: 310 05:18:56 -1589.205783c -4.29  -3.72
iter: 311 05:28:38 -1589.205796c -4.49  -3.67
iter: 312 05:38:18 -1589.205683c -4.62  -3.64
iter: 313 05:48:00 -1589.205950c -4.14  -3.66
iter: 314 05:57:46 -1589.205808c -4.77  -3.55
Writing to output.gpw (mode='')

iter: 315 06:07:32 -1589.205574c -4.00  -3.56
iter: 316 06:17:17 -1589.205616c -3.57  -3.77
iter: 317 06:26:57 -1589.205711c -3.98  -4.23c
iter: 318 06:36:39 -1589.206456c -3.09  -4.05c
iter: 319 06:46:13 -1589.205584c -4.23  -3.50
Writing to output.gpw (mode='')

iter: 320 06:55:46 -1589.205573c -3.33  -3.67
iter: 321 07:05:32 -1589.205853c -3.35  -4.19c
iter: 322 07:15:12 -1589.205842c -4.22  -3.99
iter: 323 07:24:58 -1589.205696c -4.40  -3.93
iter: 324 07:34:31 -1589.205718c -4.59  -4.29c
Writing to output.gpw (mode='')

iter: 325 07:44:06 -1589.205736c -4.88  -4.50c
iter: 326 07:54:03 -1589.205749c -5.04  -4.65c
iter: 327 08:03:50 -1589.205765c -4.67  -4.78c
iter: 328 08:13:41 -1589.205776c -4.92  -4.77c
iter: 329 08:23:30 -1589.205791c -4.83  -4.59c
Writing to output.gpw (mode='')

iter: 330 08:33:17 -1589.205808c -4.78  -4.41c
iter: 331 08:42:55 -1589.205804c -5.18  -4.27c
iter: 332 08:52:31 -1589.205802c -4.93  -4.27c
iter: 333 09:02:05 -1589.205809c -4.99  -4.37c
iter: 334 09:11:57 -1589.205818c -4.73  -4.44c
Writing to output.gpw (mode='')

iter: 335 09:21:48 -1589.205827c -5.25  -4.75c
iter: 336 09:31:23 -1589.205844c -4.87  -4.77c
iter: 337 09:41:02 -1589.205850c -5.21  -4.55c
iter: 338 09:50:36 -1589.205856c -5.26  -4.52c
iter: 339 10:00:21 -1589.205861c -5.28  -4.48c
Writing to output.gpw (mode='')

iter: 340 10:10:09 -1589.205866c -5.24  -4.45c
iter: 341 10:19:53 -1589.205881c -4.97  -4.48c
iter: 342 10:29:27 -1589.205883c -5.18  -4.35c
iter: 343 10:39:08 -1589.205894c -4.65  -4.37c
iter: 344 10:48:41 -1589.205897c -5.29  -4.53c
Writing to output.gpw (mode='')

iter: 345 10:58:31 -1589.205902c -5.50  -4.67c
iter: 346 11:08:10 -1589.205907c -5.27  -4.64c
iter: 347 11:17:43 -1589.205911c -5.52  -4.72c
iter: 348 11:27:26 -1589.205921c -4.90  -4.72c
iter: 349 11:37:18 -1589.205935c -4.85  -4.68c
Writing to output.gpw (mode='')

iter: 350 11:47:09 -1589.205937c -5.33  -4.50c
iter: 351 11:56:55 -1589.205937c -5.47  -4.48c
iter: 352 12:06:40 -1589.205940c -5.04  -4.53c
iter: 353 12:16:13 -1589.205949c -4.89  -4.80c
iter: 354 12:26:00 -1589.205953c -5.41  -4.83c
Writing to output.gpw (mode='')

iter: 355 12:35:43 -1589.205955c -5.45  -4.74c
iter: 356 12:45:17 -1589.205965c -4.89  -4.85c
iter: 357 12:55:01 -1589.205967c -5.62  -4.76c
iter: 358 13:04:58 -1589.205971c -5.07  -4.75c
iter: 359 13:14:52 -1589.205975c -5.48  -5.15c
Writing to output.gpw (mode='')

iter: 360 13:24:36 -1589.205978c -5.63  -5.04c
iter: 361 13:34:21 -1589.205984c -5.15  -5.09c
iter: 362 13:44:10 -1589.205986c -5.68  -5.17c
iter: 363 13:54:04 -1589.205989c -5.56  -5.18c
iter: 364 14:03:50 -1589.205992c -5.66  -5.26c
Writing to output.gpw (mode='')

iter: 365 14:13:39 -1589.205999c -5.11  -5.28c
iter: 366 14:23:28 -1589.206002c -5.71  -5.06c
iter: 367 14:33:23 -1589.206005c -5.56  -5.01c
iter: 368 14:43:13 -1589.206011c -5.11  -5.08c
iter: 369 14:53:02 -1589.206015c -5.39  -5.28c
Writing to output.gpw (mode='')

iter: 370 15:02:45 -1589.206018c -5.69  -5.01c
iter: 371 15:12:30 -1589.206021c -5.46  -4.94c
iter: 372 15:22:29 -1589.206025c -5.27  -5.02c
iter: 373 15:32:09 -1589.206027c -5.67  -5.34c
iter: 374 15:41:50 -1589.206030c -5.70  -5.28c
Writing to output.gpw (mode='')

iter: 375 15:51:27 -1589.206032c -5.75  -5.28c
iter: 376 16:01:11 -1589.206039c -5.20  -5.34c
iter: 377 16:10:51 -1589.206042c -5.85  -4.93c
iter: 378 16:20:33 -1589.206045c -5.74  -4.89c
iter: 379 16:30:02 -1589.206046c -5.73  -4.81c
Writing to output.gpw (mode='')

iter: 380 16:39:42 -1589.206048c -5.89  -4.85c
iter: 381 16:49:20 -1589.206050c -5.79  -4.81c
iter: 382 16:59:02 -1589.206054c -5.52  -4.82c
iter: 383 17:08:41 -1589.206059c -5.30  -4.83c
iter: 384 17:18:36 -1589.206062c -5.86  -4.96c
Writing to output.gpw (mode='')

iter: 385 17:28:21 -1589.206064c -5.55  -5.09c
iter: 386 17:38:17 -1589.206066c -5.93  -5.36c
iter: 387 17:47:59 -1589.206068c -5.85  -5.44c
iter: 388 17:57:47 -1589.206071c -5.51  -5.44c
iter: 389 18:07:37 -1589.206073c -5.81  -5.45c
Writing to output.gpw (mode='')

iter: 390 18:17:16 -1589.206076c -5.49  -5.47c
iter: 391 18:27:01 -1589.206078c -5.98  -5.44c
iter: 392 18:36:40 -1589.206081c -5.42  -5.42c
iter: 393 18:46:19 -1589.206083c -5.82  -5.22c
iter: 394 18:56:05 -1589.206085c -5.64  -5.33c
Writing to output.gpw (mode='')

iter: 395 19:05:41 -1589.206089c -5.42  -5.40c
iter: 396 19:15:23 -1589.206091c -5.70  -5.42c
iter: 397 19:25:07 -1589.206095c -5.43  -5.38c
iter: 398 19:34:43 -1589.206097c -5.63  -5.34c
iter: 399 19:44:30 -1589.206098c -5.99  -5.56c
Writing to output.gpw (mode='')

iter: 400 19:54:16 -1589.206100c -5.86  -5.59c
iter: 401 20:04:00 -1589.206102c -5.66  -5.66c
iter: 402 20:13:48 -1589.206104c -5.94  -5.52c
iter: 403 20:23:33 -1589.206105c -5.87  -5.48c
iter: 404 20:33:13 -1589.206109c -5.44  -5.43c
Writing to output.gpw (mode='')

iter: 405 20:42:53 -1589.206110c -6.11  -5.63c
iter: 406 20:52:29 -1589.206112c -5.97  -5.61c
iter: 407 21:02:09 -1589.206114c -5.92  -5.56c
iter: 408 21:11:47 -1589.206115c -5.92  -5.55c
iter: 409 21:21:21 -1589.206116c -6.07  -5.51c
Writing to output.gpw (mode='')

iter: 410 21:31:00 -1589.206117c -6.12  -5.46c
iter: 411 21:40:40 -1589.206119c -5.69  -5.51c
iter: 412 21:50:18 -1589.206121c -5.93  -5.58c
iter: 413 21:59:57 -1589.206123c -5.81  -5.55c
iter: 414 22:09:36 -1589.206127c -5.53  -5.50c
Writing to output.gpw (mode='')

iter: 415 22:19:16 -1589.206129c -6.12  -5.19c
iter: 416 22:28:49 -1589.206130c -6.13  -5.14c
iter: 417 22:38:34 -1589.206133c -5.49  -5.12c
iter: 418 22:48:26 -1589.206135c -5.95  -5.34c
iter: 419 22:58:04 -1589.206137c -5.73  -5.30c
Writing to output.gpw (mode='')

iter: 420 23:07:48 -1589.206138c -5.90  -5.19c
iter: 421 23:17:31 -1589.206140c -5.77  -5.11c
iter: 422 23:27:11 -1589.206142c -5.77  -5.36c
iter: 423 23:36:55 -1589.206143c -5.87  -5.29c
iter: 424 23:46:46 -1589.206146c -5.48  -5.24c
Writing to output.gpw (mode='')

iter: 425 23:56:40 -1589.206148c -5.75  -5.17c
iter: 426 00:06:36 -1589.206151c -5.29  -5.24c
iter: 427 00:16:12 -1589.206153c -5.89  -5.27c
iter: 428 00:25:48 -1589.206158c -5.27  -5.38c
iter: 429 00:35:31 -1589.206159c -5.88  -4.86c
Writing to output.gpw (mode='')

iter: 430 00:45:24 -1589.206163c -5.54  -4.90c
iter: 431 00:55:16 -1589.206164c -5.95  -4.73c
iter: 432 01:05:05 -1589.206165c -5.93  -4.70c
iter: 433 01:14:51 -1589.206186c -4.95  -4.69c
iter: 434 01:24:32 -1589.206171c -5.32  -4.22c
Writing to output.gpw (mode='')

iter: 435 01:34:21 -1589.206173c -5.84  -4.39c
iter: 436 01:43:58 -1589.206174c -5.73  -4.43c
iter: 437 01:53:32 -1589.206175c -5.51  -4.50c
iter: 438 02:03:08 -1589.206178c -5.20  -4.63c
iter: 439 02:12:51 -1589.206180c -5.62  -5.02c
Writing to output.gpw (mode='')

iter: 440 02:22:42 -1589.206182c -5.76  -5.24c
iter: 441 02:32:33 -1589.206183c -6.05  -5.22c
iter: 442 02:42:19 -1589.206184c -6.13  -5.21c
iter: 443 02:52:05 -1589.206186c -6.06  -5.25c
iter: 444 03:01:44 -1589.206188c -5.40  -5.26c
Writing to output.gpw (mode='')

iter: 445 03:11:32 -1589.206190c -5.73  -5.46c
iter: 446 03:21:12 -1589.206192c -5.67  -5.36c
iter: 447 03:30:51 -1589.206193c -6.08  -5.41c
iter: 448 03:40:41 -1589.206195c -5.77  -5.37c
iter: 449 03:50:23 -1589.206196c -5.64  -5.31c
Writing to output.gpw (mode='')

iter: 450 04:00:12 -1589.206198c -5.91  -5.32c
iter: 451 04:09:56 -1589.206199c -6.03  -5.30c
iter: 452 04:19:30 -1589.206201c -5.63  -5.28c
iter: 453 04:29:21 -1589.206204c -5.37  -5.34c
iter: 454 04:39:08 -1589.206205c -5.90  -5.23c
Writing to output.gpw (mode='')

iter: 455 04:48:46 -1589.206206c -6.02  -5.15c
iter: 456 04:58:35 -1589.206208c -5.86  -5.10c
iter: 457 05:07:39 -1589.206209c -6.14  -5.09c
iter: 458 05:17:14 -1589.206210c -6.09  -5.08c
iter: 459 05:26:59 -1589.206212c -5.55  -5.06c
Writing to output.gpw (mode='')

iter: 460 05:36:25 -1589.206218c -5.26  -5.07c
iter: 461 05:46:15 -1589.206221c -5.73  -5.16c
iter: 462 05:55:50 -1589.206223c -5.80  -5.18c
iter: 463 06:05:35 -1589.206226c -5.41  -5.21c
iter: 464 06:15:11 -1589.206227c -5.92  -4.95c
Writing to output.gpw (mode='')

iter: 465 06:25:01 -1589.206229c -5.60  -5.10c
iter: 466 06:34:48 -1589.206231c -5.71  -5.55c
iter: 467 06:44:27 -1589.206232c -6.15  -5.34c
iter: 468 06:54:14 -1589.206235c -5.54  -5.30c
iter: 469 07:03:53 -1589.206236c -5.94  -5.01c
Writing to output.gpw (mode='')

iter: 470 07:13:42 -1589.206238c -5.43  -4.98c
iter: 471 07:23:12 -1589.206240c -5.97  -5.16c
iter: 472 07:32:47 -1589.206246c -5.10  -5.07c
iter: 473 07:42:26 -1589.206248c -6.06  -5.06c
iter: 474 07:51:59 -1589.206249c -6.00  -5.07c
Writing to output.gpw (mode='')

iter: 475 08:01:39 -1589.206251c -5.93  -5.00c
iter: 476 08:11:18 -1589.206254c -5.34  -4.95c
iter: 477 08:21:04 -1589.206256c -6.01  -5.19c
iter: 478 08:30:48 -1589.206259c -5.53  -5.28c
iter: 479 08:40:29 -1589.206260c -5.90  -5.08c
Writing to output.gpw (mode='')

iter: 480 08:50:19 -1589.206263c -5.47  -5.08c
iter: 481 09:00:03 -1589.206265c -5.76  -4.95c
iter: 482 09:09:32 -1589.206268c -5.28  -5.00c
iter: 483 09:19:12 -1589.206270c -5.84  -5.36c
iter: 484 09:28:53 -1589.206272c -5.66  -5.39c
Writing to output.gpw (mode='')

iter: 485 09:38:37 -1589.206274c -6.04  -5.42c
iter: 486 09:48:15 -1589.206277c -5.55  -5.49c
iter: 487 09:57:52 -1589.206278c -5.82  -5.20c
iter: 488 10:07:26 -1589.206281c -5.37  -5.25c
iter: 489 10:17:10 -1589.206283c -5.84  -5.47c
Writing to output.gpw (mode='')

iter: 490 10:27:06 -1589.206286c -5.46  -5.54c
iter: 491 10:36:50 -1589.206287c -5.92  -5.35c
iter: 492 10:46:22 -1589.206289c -5.77  -5.28c
iter: 493 10:56:02 -1589.206294c -5.17  -5.32c
iter: 494 11:05:37 -1589.206295c -6.05  -5.65c
Writing to output.gpw (mode='')

iter: 495 11:15:20 -1589.206298c -5.60  -5.65c
iter: 496 11:25:08 -1589.206299c -6.03  -5.59c
iter: 497 11:35:02 -1589.206302c -5.65  -5.45c
iter: 498 11:44:46 -1589.206304c -5.68  -5.63c
iter: 499 11:54:31 -1589.206305c -6.01  -5.56c
Writing to output.gpw (mode='')

iter: 500 12:04:08 -1589.206307c -5.71  -5.48c
iter: 501 12:13:39 -1589.206309c -5.62  -5.46c
iter: 502 12:23:22 -1589.206313c -5.34  -5.53c
iter: 503 12:33:02 -1589.206315c -5.80  -5.63c
iter: 504 12:42:37 -1589.206318c -5.44  -5.67c
Writing to output.gpw (mode='')

iter: 505 12:52:17 -1589.206321c -5.60  -5.91c
iter: 506 13:01:55 -1589.206322c -5.97  -5.63c
iter: 507 13:11:45 -1589.206324c -5.56  -5.58c
iter: 508 13:21:23 -1589.206326c -5.89  -5.51c
iter: 509 13:30:57 -1589.206328c -5.55  -5.48c
Writing to output.gpw (mode='')

iter: 510 13:40:44 -1589.206334c -5.19  -5.39c
iter: 511 13:50:28 -1589.206336c -6.03  -5.42c
iter: 512 13:59:55 -1589.206337c -6.08  -5.40c
iter: 513 14:09:37 -1589.206339c -5.98  -5.43c
iter: 514 14:19:13 -1589.206341c -5.81  -5.45c
Writing to output.gpw (mode='')

iter: 515 14:28:54 -1589.206342c -5.96  -5.76c
iter: 516 14:38:30 -1589.206344c -5.78  -5.78c
iter: 517 14:48:04 -1589.206346c -5.80  -5.92c
iter: 518 14:57:34 -1589.206347c -6.01  -5.97c
iter: 519 15:07:13 -1589.206349c -5.71  -5.94c
Writing to output.gpw (mode='')

iter: 520 15:16:51 -1589.206351c -5.73  -5.78c
iter: 521 15:26:30 -1589.206352c -5.92  -5.73c
iter: 522 15:36:13 -1589.206354c -5.76  -5.68c
iter: 523 15:45:48 -1589.206357c -5.49  -5.59c
iter: 524 15:55:37 -1589.206358c -5.91  -5.69c
Writing to output.gpw (mode='')

iter: 525 16:05:18 -1589.206360c -5.92  -5.56c
iter: 526 16:14:56 -1589.206364c -5.35  -5.57c
iter: 527 16:24:39 -1589.206366c -5.66  -5.70c
iter: 528 16:34:21 -1589.206369c -5.60  -5.79c
iter: 529 16:44:03 -1589.206371c -5.70  -5.68c
Writing to output.gpw (mode='')

iter: 530 16:53:41 -1589.206372c -5.77  -5.76c
iter: 531 17:03:24 -1589.206375c -5.60  -5.73c
iter: 532 17:13:01 -1589.206376c -5.93  -5.65c
iter: 533 17:22:43 -1589.206378c -5.79  -5.62c
iter: 534 17:32:17 -1589.206381c -5.43  -5.57c
Writing to output.gpw (mode='')

iter: 535 17:42:03 -1589.206384c -5.54  -5.45c
iter: 536 17:51:47 -1589.206386c -5.83  -5.42c
iter: 537 18:01:23 -1589.206388c -5.60  -5.42c
iter: 538 18:11:05 -1589.206391c -5.58  -5.38c
iter: 539 18:20:56 -1589.206393c -6.03  -5.44c
Writing to output.gpw (mode='')

iter: 540 18:30:41 -1589.206395c -5.81  -5.29c
iter: 541 18:40:25 -1589.206397c -5.81  -5.41c
iter: 542 18:49:56 -1589.206399c -5.85  -5.22c
iter: 543 18:59:40 -1589.206401c -5.79  -5.28c
iter: 544 19:09:15 -1589.206403c -5.95  -5.63c
Writing to output.gpw (mode='')

iter: 545 19:18:43 -1589.206405c -5.95  -5.64c
iter: 546 19:28:33 -1589.206408c -5.44  -5.83c
iter: 547 19:38:08 -1589.206410c -5.69  -5.95c
iter: 548 19:47:52 -1589.206412c -5.86  -6.03c
iter: 549 19:57:30 -1589.206413c -5.83  -6.05c
Writing to output.gpw (mode='')

iter: 550 20:07:05 -1589.206415c -5.87  -6.02c
iter: 551 20:16:44 -1589.206416c -5.93  -5.92c
iter: 552 20:26:20 -1589.206418c -5.92  -5.84c
iter: 553 20:36:05 -1589.206420c -5.81  -5.80c
iter: 554 20:45:50 -1589.206422c -5.69  -5.66c
Writing to output.gpw (mode='')

iter: 555 20:55:32 -1589.206423c -6.02  -5.71c
iter: 556 21:05:04 -1589.206425c -5.92  -5.66c
iter: 557 21:14:38 -1589.206428c -5.56  -5.59c
iter: 558 21:24:19 -1589.206433c -5.24  -5.51c
iter: 559 21:34:04 -1589.206435c -5.72  -5.41c
Writing to output.gpw (mode='')

iter: 560 21:43:46 -1589.206437c -5.87  -5.40c
iter: 561 21:53:25 -1589.206439c -5.69  -5.36c
iter: 562 22:03:22 -1589.206442c -5.76  -5.29c
iter: 563 22:13:02 -1589.206447c -5.31  -5.31c
iter: 564 22:22:33 -1589.206450c -5.75  -5.21c
Writing to output.gpw (mode='')

iter: 565 22:32:14 -1589.206454c -5.36  -5.21c
iter: 566 22:42:04 -1589.206458c -5.53  -5.11c
iter: 567 22:51:33 -1589.206460c -5.96  -5.32c
iter: 568 23:01:18 -1589.206465c -5.22  -5.24c
iter: 569 23:10:57 -1589.206466c -5.92  -5.16c
Writing to output.gpw (mode='')

iter: 570 23:20:32 -1589.206470c -5.44  -5.12c
iter: 571 23:30:15 -1589.206473c -5.76  -5.04c
iter: 572 23:40:01 -1589.206476c -5.53  -5.01c
iter: 573 23:49:35 -1589.206478c -5.58  -4.94c
iter: 574 23:59:10 -1589.206486c -5.17  -4.90c
Writing to output.gpw (mode='')

iter: 575 00:08:52 -1589.206488c -5.82  -5.05c
iter: 576 00:18:27 -1589.206491c -5.78  -5.06c
iter: 577 00:27:58 -1589.206497c -5.10  -5.04c
iter: 578 00:37:39 -1589.206501c -5.35  -4.97c
iter: 579 00:47:06 -1589.206503c -5.71  -4.94c
Writing to output.gpw (mode='')

iter: 580 00:56:45 -1589.206508c -5.12  -5.12c
iter: 581 01:06:33 -1589.206512c -5.32  -5.36c
iter: 582 01:15:59 -1589.206515c -5.65  -5.43c
iter: 583 01:25:30 -1589.206517c -5.49  -5.47c
iter: 584 01:35:09 -1589.206521c -5.29  -5.48c
Writing to output.gpw (mode='')

iter: 585 01:44:52 -1589.206528c -4.95  -5.46c
iter: 586 01:54:37 -1589.206532c -5.25  -5.33c
iter: 587 02:04:26 -1589.206537c -5.28  -5.21c
iter: 588 02:14:11 -1589.206541c -5.32  -5.11c
iter: 589 02:23:51 -1589.206550c -4.89  -5.14c
Writing to output.gpw (mode='')

iter: 590 02:33:47 -1589.206553c -5.76  -5.29c
iter: 591 02:43:33 -1589.206555c -5.67  -5.27c
iter: 592 02:53:09 -1589.206562c -5.16  -5.48c
iter: 593 03:02:55 -1589.206564c -5.76  -5.30c
iter: 594 03:12:45 -1589.206570c -5.17  -5.31c
Writing to output.gpw (mode='')

iter: 595 03:22:26 -1589.206573c -5.38  -5.10c
iter: 596 03:32:03 -1589.206577c -5.32  -5.02c
iter: 597 03:41:44 -1589.206586c -4.82  -5.02c
iter: 598 03:51:32 -1589.206589c -5.76  -5.12c
iter: 599 04:01:05 -1589.206593c -5.22  -5.10c
Writing to output.gpw (mode='')

iter: 600 04:11:02 -1589.206600c -5.04  -5.16c
iter: 601 04:20:44 -1589.206619c -4.90  -5.26c
iter: 602 04:30:21 -1589.206623c -5.66  -4.69c
iter: 603 04:39:58 -1589.206628c -5.19  -4.67c
iter: 604 04:49:47 -1589.206632c -5.74  -4.74c
Writing to output.gpw (mode='')

iter: 605 04:59:28 -1589.206638c -4.98  -4.75c
iter: 606 05:09:13 -1589.206646c -5.15  -4.97c
iter: 607 05:18:48 -1589.206653c -5.26  -4.97c
iter: 608 05:28:21 -1589.206655c -5.61  -4.75c
iter: 609 05:38:00 -1589.206660c -4.97  -4.74c
Writing to output.gpw (mode='')

iter: 610 05:47:42 -1589.206665c -5.18  -4.90c
iter: 611 05:57:25 -1589.206669c -5.50  -5.08c
iter: 612 06:07:09 -1589.206677c -5.04  -5.15c
iter: 613 06:16:44 -1589.206680c -5.65  -4.91c
iter: 614 06:26:25 -1589.206683c -5.51  -4.93c
Writing to output.gpw (mode='')

iter: 615 06:36:04 -1589.206687c -5.15  -4.88c
iter: 616 06:45:40 -1589.206700c -4.72  -4.94c
iter: 617 06:55:16 -1589.206704c -5.57  -5.30c
iter: 618 07:05:05 -1589.206711c -5.02  -5.32c
iter: 619 07:14:36 -1589.206722c -4.90  -5.16c
Writing to output.gpw (mode='')

iter: 620 07:24:17 -1589.206730c -5.05  -5.21c
iter: 621 07:34:01 -1589.206738c -5.03  -5.00c
iter: 622 07:43:44 -1589.206739c -5.26  -4.69c
iter: 623 07:53:33 -1589.206746c -4.91  -4.76c
iter: 624 08:03:27 -1589.206753c -5.10  -4.95c
Writing to output.gpw (mode='')

iter: 625 08:13:09 -1589.206764c -4.82  -4.84c
iter: 626 08:22:56 -1589.206800c -4.52  -4.61c
iter: 627 08:32:41 -1589.206794c -5.03  -4.17c
iter: 628 08:42:16 -1589.206810c -5.31  -4.21c
iter: 629 08:51:48 -1589.206808c -4.56  -4.16c
Writing to output.gpw (mode='')

iter: 630 09:01:33 -1589.206814c -5.39  -4.32c
iter: 631 09:11:19 -1589.206934c -3.94  -4.38c
iter: 632 09:21:02 -1589.206845c -4.86  -3.89
iter: 633 09:30:47 -1589.206832c -4.17  -4.02c
iter: 634 09:40:34 -1589.206856c -5.28  -4.47c
Writing to output.gpw (mode='')

iter: 635 09:50:17 -1589.206871c -5.19  -4.45c
iter: 636 10:00:00 -1589.206869c -5.26  -4.38c
iter: 637 10:09:56 -1589.206882c -4.51  -4.45c
iter: 638 10:19:45 -1589.206887c -5.27  -4.97c
iter: 639 10:29:24 -1589.206891c -5.41  -4.90c
Writing to output.gpw (mode='')

iter: 640 10:39:01 -1589.206898c -4.96  -4.91c
iter: 641 10:48:46 -1589.206907c -4.85  -5.08c
iter: 642 10:58:24 -1589.206913c -5.17  -5.05c
iter: 643 11:07:55 -1589.206921c -4.93  -5.00c
iter: 644 11:17:40 -1589.206927c -5.13  -5.28c
Writing to output.gpw (mode='')

iter: 645 11:27:22 -1589.206931c -5.36  -5.23c
iter: 646 11:36:58 -1589.206936c -5.18  -5.22c
iter: 647 11:46:26 -1589.206962c -4.51  -5.17c
iter: 648 11:56:07 -1589.206969c -5.38  -4.99c
iter: 649 12:05:51 -1589.206974c -5.37  -4.90c
Writing to output.gpw (mode='')

iter: 650 12:15:36 -1589.206990c -4.59  -4.83c
iter: 651 12:25:29 -1589.206999c -5.15  -4.94c
iter: 652 12:35:13 -1589.207004c -5.27  -4.81c
iter: 653 12:44:52 -1589.207016c -4.83  -4.85c
iter: 654 12:54:29 -1589.207048c -4.44  -4.79c
Writing to output.gpw (mode='')

iter: 655 13:04:18 -1589.207063c -4.92  -4.78c
iter: 656 13:14:03 -1589.207070c -5.20  -4.61c
iter: 657 13:23:45 -1589.207082c -4.60  -4.55c
iter: 658 13:33:24 -1589.207092c -5.16  -4.65c
iter: 659 13:42:55 -1589.207099c -5.18  -4.63c
Writing to output.gpw (mode='')

iter: 660 13:52:37 -1589.207116c -4.82  -4.59c
iter: 661 14:02:08 -1589.207137c -4.43  -4.43c
iter: 662 14:12:04 -1589.207147c -5.10  -4.93c
iter: 663 14:21:47 -1589.207154c -5.25  -4.96c
iter: 664 14:31:31 -1589.207162c -5.12  -4.89c
Writing to output.gpw (mode='')

iter: 665 14:41:16 -1589.207173c -4.77  -4.91c
iter: 666 14:50:48 -1589.207199c -4.40  -5.00c
iter: 667 15:00:24 -1589.207207c -5.15  -4.97c
iter: 668 15:09:56 -1589.207217c -4.98  -4.96c
iter: 669 15:19:34 -1589.207256c -4.40  -4.89c
Writing to output.gpw (mode='')

iter: 670 15:29:12 -1589.207268c -5.10  -4.95c
iter: 671 15:38:55 -1589.207286c -4.67  -5.00c
iter: 672 15:48:41 -1589.207297c -4.99  -5.06c
iter: 673 15:58:19 -1589.207309c -4.88  -5.00c
iter: 674 16:08:01 -1589.207342c -4.36  -4.93c
Writing to output.gpw (mode='')

iter: 675 16:17:38 -1589.207353c -5.17  -5.13c
iter: 676 16:27:27 -1589.207366c -4.87  -5.14c
iter: 677 16:37:04 -1589.207374c -5.12  -5.19c
iter: 678 16:46:40 -1589.207418c -4.26  -5.17c
iter: 679 16:56:35 -1589.207436c -4.77  -5.12c
Writing to output.gpw (mode='')

iter: 680 17:06:18 -1589.207448c -5.03  -5.17c
iter: 681 17:16:07 -1589.207461c -4.90  -5.16c
iter: 682 17:26:14 -1589.207483c -4.56  -5.14c
iter: 683 17:35:54 -1589.207507c -4.57  -4.97c
iter: 684 17:45:42 -1589.207524c -4.84  -4.98c
Writing to output.gpw (mode='')

iter: 685 17:55:22 -1589.207571c -4.24  -5.00c
iter: 686 18:05:03 -1589.207598c -4.52  -4.71c
iter: 687 18:14:32 -1589.207646c -4.25  -4.81c
iter: 688 18:24:12 -1589.207661c -4.78  -4.58c
iter: 689 18:33:50 -1589.207744c -4.02  -4.62c
Writing to output.gpw (mode='')

iter: 690 18:43:29 -1589.207791c -4.48  -4.60c
iter: 691 18:53:06 -1589.207810c -4.76  -4.39c
iter: 692 19:02:41 -1589.207825c -4.84  -4.33c
iter: 693 19:12:08 -1589.207879c -4.02  -4.30c
iter: 694 19:21:46 -1589.207912c -4.73  -4.39c
Writing to output.gpw (mode='')

iter: 695 19:31:22 -1589.207932c -4.88  -4.40c
iter: 696 19:40:53 -1589.207992c -4.08  -4.40c
iter: 697 19:50:25 -1589.208090c -3.91  -4.67c
iter: 698 19:59:58 -1589.208125c -4.37  -4.56c
iter: 699 20:09:28 -1589.208159c -4.44  -4.76c
Writing to output.gpw (mode='')

iter: 700 20:19:17 -1589.208188c -4.53  -4.89c
iter: 701 20:28:45 -1589.208220c -4.45  -4.93c
iter: 702 20:38:14 -1589.208248c -4.60  -5.00c
iter: 703 20:47:55 -1589.208294c -4.25  -5.02c
iter: 704 20:57:43 -1589.208362c -3.98  -5.07c
Writing to output.gpw (mode='')

iter: 705 21:07:33 -1589.208471c -3.79  -4.90c
iter: 706 21:17:11 -1589.208510c -4.47  -4.58c
iter: 707 21:27:01 -1589.208545c -4.39  -4.56c
iter: 708 21:36:44 -1589.208665c -3.75  -4.55c
iter: 709 21:46:26 -1589.208713c -4.44  -4.56c
Writing to output.gpw (mode='')

iter: 710 21:56:10 -1589.208906c -3.79  -4.59c
iter: 711 22:05:54 -1589.208959c -4.33  -4.23c
iter: 712 22:15:35 -1589.209018c -4.19  -4.27c
iter: 713 22:25:20 -1589.209070c -4.41  -4.32c
iter: 714 22:35:01 -1589.209124c -4.29  -4.31c
Writing to output.gpw (mode='')

iter: 715 22:44:37 -1589.209480c -3.70  -4.31c
iter: 716 22:54:00 -1589.209555c -4.20  -4.03c
iter: 717 23:03:29 -1589.209631c -4.12  -4.08c
iter: 718 23:13:06 -1589.209741c -3.82  -4.13c
iter: 719 23:22:41 -1589.209814c -4.18  -4.31c
Writing to output.gpw (mode='')

iter: 720 23:32:12 -1589.209978c -3.65  -4.40c
iter: 721 23:41:48 -1589.210057c -4.21  -4.61c
iter: 722 23:51:34 -1589.210118c -4.32  -4.60c
iter: 723 00:01:07 -1589.210197c -4.19  -4.57c
iter: 724 00:10:42 -1589.210296c -4.02  -4.48c
Writing to output.gpw (mode='')

iter: 725 00:20:16 -1589.210364c -4.32  -4.49c
iter: 726 00:29:52 -1589.210481c -3.83  -4.47c
iter: 727 00:39:25 -1589.210554c -4.25  -4.46c
iter: 728 00:48:53 -1589.211188c -3.41  -4.44c
iter: 729 00:58:24 -1589.211384c -3.80  -4.05c
Writing to output.gpw (mode='')

iter: 730 01:08:04 -1589.211522c -4.17  -4.25c
iter: 731 01:17:48 -1589.211625c -4.05  -4.19c
iter: 732 01:27:15 -1589.211854c -3.53  -4.23c
iter: 733 01:36:57 -1589.212417c -3.22  -4.41c
iter: 734 01:46:46 -1589.212511c -3.90  -3.84
Writing to output.gpw (mode='')

iter: 735 01:56:32 -1589.212900c -3.52  -3.87
iter: 736 02:06:03 -1589.213040c -3.84  -3.70
iter: 737 02:15:50 -1589.213077c -3.94  -3.66
iter: 738 02:25:26 -1589.213574c -3.08  -3.66
iter: 739 02:35:18 -1589.213889c -3.70  -4.29c
Writing to output.gpw (mode='')

iter: 740 02:44:59 -1589.214051c -3.84  -4.08c
iter: 741 02:54:39 -1589.214197c -3.53  -4.01c
iter: 742 03:04:21 -1589.214396c -3.61  -4.26c
iter: 743 03:13:55 -1589.214610c -3.54  -4.38c
iter: 744 03:23:29 -1589.214905c -3.37  -4.32c
Writing to output.gpw (mode='')

iter: 745 03:33:00 -1589.215396c -3.16  -4.07c
iter: 746 03:42:34 -1589.215467c -3.72  -3.78
iter: 747 03:52:12 -1589.216152c -3.10  -3.81
iter: 748 04:01:53 -1589.216343c -3.76  -3.59
iter: 749 04:11:31 -1589.216496c -3.82  -3.56
Writing to output.gpw (mode='')

iter: 750 04:21:12 -1589.217111c -3.22  -3.54
iter: 751 04:30:59 -1589.217055c -3.10  -3.45
iter: 752 04:40:41 -1589.217503c -3.75  -3.73
iter: 753 04:50:22 -1589.217625c -3.92  -3.70
iter: 754 05:00:03 -1589.218355c -2.88  -3.73
Writing to output.gpw (mode='')

iter: 755 05:09:55 -1589.219744c -2.98  -3.93
iter: 756 05:19:39 -1589.219229c -3.32  -3.44
iter: 757 05:29:20 -1589.219398c -3.49  -3.59
iter: 758 05:39:00 -1589.220066c -3.71  -3.74
iter: 759 05:48:45 -1589.223686c -2.42  -3.59
Writing to output.gpw (mode='')

iter: 760 05:58:36 -1589.223179c -3.45  -3.19
iter: 761 06:08:23 -1589.223864c -3.48  -3.18
iter: 762 06:18:03 -1589.227009c -2.85  -3.15
iter: 763 06:27:33 -1589.220652c -2.57  -3.02
iter: 764 06:37:14 -1589.222266c -2.59  -3.46
Writing to output.gpw (mode='')

iter: 765 06:46:58 -1589.223107c -3.03  -3.96
iter: 766 06:56:37 -1589.223237c -3.60  -3.70
iter: 767 07:06:15 -1589.223465c -3.74  -3.62
iter: 768 07:15:56 -1589.224683c -3.15  -3.57
iter: 769 07:25:38 -1589.227588c -2.63  -3.37
Writing to output.gpw (mode='')

iter: 770 07:35:24 -1589.224109c -3.25  -3.13
iter: 771 07:45:04 -1589.223610c -2.83  -3.26
iter: 772 07:54:40 -1589.224121c -3.22  -3.60
iter: 773 08:04:27 -1589.224925c -2.88  -3.84
iter: 774 08:14:09 -1589.225754c -2.96  -3.95
Writing to output.gpw (mode='')

iter: 775 08:23:44 -1589.225692c -3.65  -3.61
iter: 776 08:33:23 -1589.225460c -3.32  -3.57
iter: 777 08:43:13 -1589.225799c -3.10  -3.72
iter: 778 08:52:55 -1589.226119c -3.42  -4.12c
iter: 779 09:02:27 -1589.226332c -3.68  -4.32c
Writing to output.gpw (mode='')

iter: 780 09:12:16 -1589.226545c -3.73  -4.26c
iter: 781 09:21:57 -1589.226756c -3.60  -4.27c
iter: 782 09:31:28 -1589.226924c -3.87  -4.34c
iter: 783 09:41:16 -1589.227267c -3.29  -4.24c
iter: 784 09:51:09 -1589.227808c -3.14  -4.42c
Writing to output.gpw (mode='')

iter: 785 10:00:54 -1589.227985c -3.84  -4.16c
iter: 786 10:10:36 -1589.228175c -3.75  -4.14c
iter: 787 10:20:25 -1589.228428c -3.67  -4.11c
iter: 788 10:30:12 -1589.229564c -3.12  -4.09c
iter: 789 10:39:54 -1589.230304c -3.48  -3.56
Writing to output.gpw (mode='')

iter: 790 10:49:51 -1589.229826c -3.34  -3.45
iter: 791 10:59:41 -1589.230076c -3.12  -3.59
iter: 792 11:09:47 -1589.230535c -3.25  -4.20c
iter: 793 11:19:33 -1589.230922c -3.37  -3.97
iter: 794 11:29:17 -1589.230748c -3.68  -3.72
Writing to output.gpw (mode='')

iter: 795 11:39:07 -1589.230942c -3.48  -3.92
iter: 796 11:48:50 -1589.231108c -3.84  -4.28c
iter: 797 11:58:34 -1589.231269c -3.75  -4.33c
iter: 798 12:08:27 -1589.231540c -3.48  -4.50c
iter: 799 12:18:21 -1589.231815c -3.38  -4.28c
Writing to output.gpw (mode='')

iter: 800 12:28:15 -1589.231968c -3.85  -4.27c
iter: 801 12:37:58 -1589.232247c -3.31  -4.16c
iter: 802 12:47:40 -1589.232387c -3.89  -4.41c
iter: 803 12:57:27 -1589.232540c -3.84  -4.29c
iter: 804 13:07:12 -1589.232678c -3.68  -4.18c
Writing to output.gpw (mode='')

iter: 805 13:17:03 -1589.232804c -3.89  -4.33c
iter: 806 13:26:36 -1589.232947c -3.74  -4.38c
iter: 807 13:36:27 -1589.233204c -3.41  -4.49c
iter: 808 13:46:03 -1589.233365c -3.79  -4.69c
iter: 809 13:55:49 -1589.233524c -3.80  -4.45c
Writing to output.gpw (mode='')

iter: 810 14:05:36 -1589.233658c -3.86  -4.28c
iter: 811 14:15:24 -1589.233754c -4.13  -4.29c
iter: 812 14:25:10 -1589.233853c -4.14  -4.27c
iter: 813 14:35:01 -1589.233994c -3.87  -4.25c
iter: 814 14:44:45 -1589.234168c -3.76  -4.19c
Writing to output.gpw (mode='')

iter: 815 14:54:30 -1589.234343c -3.77  -4.20c
iter: 816 15:04:23 -1589.234444c -4.17  -4.38c
iter: 817 15:14:14 -1589.234533c -4.24  -4.38c
iter: 818 15:24:00 -1589.234615c -4.27  -4.51c
iter: 819 15:33:56 -1589.234784c -3.75  -4.58c
Writing to output.gpw (mode='')

iter: 820 15:43:57 -1589.234972c -3.73  -4.63c
iter: 821 15:53:42 -1589.235065c -4.12  -4.44c
iter: 822 16:03:31 -1589.235310c -3.56  -4.40c
iter: 823 16:13:06 -1589.235391c -4.22  -4.12c
iter: 824 16:22:44 -1589.235583c -3.72  -4.09c
Writing to output.gpw (mode='')

iter: 825 16:32:21 -1589.235663c -4.16  -3.94
iter: 826 16:41:59 -1589.235805c -3.67  -3.93
iter: 827 16:51:41 -1589.235888c -4.31  -4.02c
iter: 828 17:01:20 -1589.235959c -4.24  -4.05c
iter: 829 17:11:05 -1589.236107c -3.72  -4.10c
Writing to output.gpw (mode='')

iter: 830 17:21:01 -1589.236192c -4.29  -4.52c
iter: 831 17:30:47 -1589.236269c -4.30  -4.59c
iter: 832 17:40:25 -1589.236368c -4.09  -4.69c
iter: 833 17:50:01 -1589.236449c -4.17  -4.83c
iter: 834 17:59:38 -1589.236514c -4.27  -4.95c
Writing to output.gpw (mode='')

iter: 835 18:09:26 -1589.236586c -4.24  -4.97c
iter: 836 18:19:20 -1589.236645c -4.37  -4.85c
iter: 837 18:29:02 -1589.236738c -3.97  -4.82c
iter: 838 18:38:44 -1589.236814c -4.18  -4.82c
iter: 839 18:48:24 -1589.236903c -4.02  -4.71c
Writing to output.gpw (mode='')

iter: 840 18:58:21 -1589.237007c -4.01  -4.62c
iter: 841 19:08:16 -1589.237080c -4.23  -4.71c
iter: 842 19:17:53 -1589.237135c -4.40  -4.45c
iter: 843 19:27:27 -1589.237189c -4.43  -4.49c
iter: 844 19:37:03 -1589.237234c -4.55  -4.42c
Writing to output.gpw (mode='')

iter: 845 19:46:50 -1589.237288c -4.36  -4.52c
iter: 846 19:56:30 -1589.237442c -3.86  -4.70c
iter: 847 20:06:10 -1589.237495c -4.49  -4.49c
iter: 848 20:15:47 -1589.237562c -4.36  -4.47c
iter: 849 20:25:30 -1589.237610c -4.46  -4.39c
Writing to output.gpw (mode='')

iter: 850 20:35:12 -1589.237658c -4.48  -4.39c
iter: 851 20:44:48 -1589.237804c -3.93  -4.32c
iter: 852 20:54:21 -1589.237851c -4.19  -4.09c
iter: 853 21:04:01 -1589.237906c -4.50  -4.16c
iter: 854 21:13:35 -1589.237974c -4.03  -4.13c
Writing to output.gpw (mode='')

iter: 855 21:23:07 -1589.238020c -4.57  -4.35c
iter: 856 21:32:34 -1589.238147c -3.94  -4.31c
iter: 857 21:42:07 -1589.238169c -4.34  -4.12c
iter: 858 21:51:44 -1589.238210c -4.46  -4.28c
iter: 859 22:01:24 -1589.238259c -4.58  -4.41c
Writing to output.gpw (mode='')

iter: 860 22:11:03 -1589.238297c -4.56  -4.38c
iter: 861 22:20:44 -1589.238349c -4.20  -4.40c
iter: 862 22:30:38 -1589.238398c -4.34  -4.74c
iter: 863 22:40:17 -1589.238440c -4.47  -4.82c
iter: 864 22:49:49 -1589.238477c -4.47  -4.75c
Writing to output.gpw (mode='')

iter: 865 22:59:23 -1589.238507c -4.64  -4.78c
iter: 866 23:08:33 -1589.238551c -4.34  -4.74c
iter: 867 23:18:17 -1589.238609c -4.22  -4.79c
iter: 868 23:27:49 -1589.238638c -4.66  -4.63c
iter: 869 23:37:46 -1589.238672c -4.48  -4.58c
Writing to output.gpw (mode='')

iter: 870 23:47:37 -1589.238703c -4.57  -4.63c
iter: 871 23:57:16 -1589.238757c -4.18  -4.58c
iter: 872 00:06:41 -1589.238801c -4.33  -4.58c
iter: 873 00:16:18 -1589.238844c -4.44  -4.62c
iter: 874 00:26:12 -1589.238867c -4.79  -4.82c
Writing to output.gpw (mode='')

iter: 875 00:36:02 -1589.238907c -4.44  -4.76c
iter: 876 00:45:46 -1589.238951c -4.37  -4.80c
iter: 877 00:55:27 -1589.238983c -4.59  -4.76c
iter: 878 01:05:21 -1589.239020c -4.37  -4.78c
iter: 879 01:15:08 -1589.239070c -4.20  -4.98c
Writing to output.gpw (mode='')

iter: 880 01:24:51 -1589.239094c -4.69  -4.95c
iter: 881 01:34:33 -1589.239137c -4.31  -5.01c
iter: 882 01:44:15 -1589.239160c -4.82  -5.17c
iter: 883 01:53:59 -1589.239187c -4.58  -5.15c
iter: 884 02:03:38 -1589.239225c -4.33  -5.19c
Writing to output.gpw (mode='')

iter: 885 02:13:25 -1589.239252c -4.57  -5.29c
iter: 886 02:23:16 -1589.239280c -4.59  -5.34c
iter: 887 02:32:50 -1589.239308c -4.55  -5.36c
iter: 888 02:42:21 -1589.239328c -4.74  -5.29c
iter: 889 02:51:46 -1589.239355c -4.49  -5.30c
Writing to output.gpw (mode='')

iter: 890 03:01:16 -1589.239419c -4.19  -5.28c
iter: 891 03:10:45 -1589.239445c -4.75  -5.00c
iter: 892 03:20:18 -1589.239470c -4.63  -5.06c
iter: 893 03:29:51 -1589.239497c -4.55  -5.09c
iter: 894 03:39:28 -1589.239519c -4.77  -4.98c
Writing to output.gpw (mode='')

iter: 895 03:49:03 -1589.239536c -4.96  -4.97c
iter: 896 03:58:37 -1589.239558c -4.76  -5.07c
iter: 897 04:08:19 -1589.239582c -4.59  -5.04c
iter: 898 04:17:59 -1589.239596c -5.02  -4.93c
iter: 899 04:27:44 -1589.239617c -4.78  -4.90c
Writing to output.gpw (mode='')

iter: 900 04:37:17 -1589.239672c -4.36  -4.93c
iter: 901 04:47:05 -1589.239693c -4.83  -4.91c
iter: 902 04:56:55 -1589.239711c -4.87  -4.84c
iter: 903 05:06:34 -1589.239734c -4.67  -4.80c
iter: 904 05:16:11 -1589.239750c -4.91  -4.82c
Writing to output.gpw (mode='')

iter: 905 05:26:10 -1589.239797c -4.35  -4.83c
iter: 906 05:35:45 -1589.239811c -5.07  -4.39c
iter: 907 05:45:25 -1589.239829c -4.70  -4.40c
iter: 908 05:55:10 -1589.239845c -5.02  -4.44c
iter: 909 06:04:47 -1589.239881c -4.35  -4.41c
Writing to output.gpw (mode='')

iter: 910 06:14:33 -1589.239899c -4.92  -4.66c
iter: 911 06:24:19 -1589.239914c -4.95  -4.65c
iter: 912 06:34:10 -1589.239930c -4.88  -4.63c
iter: 913 06:43:47 -1589.239953c -4.62  -4.59c
iter: 914 06:53:35 -1589.239965c -5.07  -4.68c
Writing to output.gpw (mode='')

iter: 915 07:03:13 -1589.239989c -4.66  -4.70c
iter: 916 07:12:52 -1589.240015c -4.53  -4.73c
iter: 917 07:22:34 -1589.240027c -5.02  -4.76c
iter: 918 07:32:12 -1589.240062c -4.42  -4.75c
iter: 919 07:41:58 -1589.240071c -5.02  -4.35c
Writing to output.gpw (mode='')

iter: 920 07:51:41 -1589.240089c -4.53  -4.31c
iter: 921 08:01:10 -1589.240105c -5.01  -4.44c
iter: 922 08:11:01 -1589.240120c -4.87  -4.43c
iter: 923 08:20:45 -1589.240137c -4.55  -4.40c
iter: 924 08:30:22 -1589.240150c -4.96  -4.58c
Writing to output.gpw (mode='')

iter: 925 08:40:12 -1589.240164c -4.81  -4.74c
iter: 926 08:49:53 -1589.240182c -4.76  -4.95c
iter: 927 08:59:48 -1589.240193c -4.92  -5.11c
iter: 928 09:09:35 -1589.240213c -4.59  -5.12c
iter: 929 09:19:17 -1589.240227c -4.81  -5.13c
Writing to output.gpw (mode='')

iter: 930 09:28:56 -1589.240236c -5.09  -5.06c
iter: 931 09:38:34 -1589.240254c -4.68  -5.11c
iter: 932 09:48:12 -1589.240263c -5.11  -5.07c
iter: 933 09:57:52 -1589.240278c -4.90  -5.02c
iter: 934 10:07:37 -1589.240288c -5.04  -5.03c
Writing to output.gpw (mode='')

iter: 935 10:17:31 -1589.240321c -4.49  -5.04c
iter: 936 10:27:08 -1589.240339c -4.81  -5.09c
iter: 937 10:36:47 -1589.240363c -4.59  -5.03c
iter: 938 10:46:31 -1589.240376c -4.93  -4.91c
iter: 939 10:56:03 -1589.240386c -5.09  -4.91c
Writing to output.gpw (mode='')

iter: 940 11:05:36 -1589.240409c -4.56  -4.84c
iter: 941 11:15:13 -1589.240422c -4.84  -4.72c
iter: 942 11:24:55 -1589.240433c -4.98  -4.82c
iter: 943 11:34:29 -1589.240458c -4.47  -4.80c
iter: 944 11:44:11 -1589.240479c -4.77  -4.77c
Writing to output.gpw (mode='')

iter: 945 11:53:44 -1589.240491c -4.94  -4.71c
iter: 946 12:03:29 -1589.240532c -4.36  -4.74c
iter: 947 12:13:09 -1589.240544c -4.99  -4.65c
iter: 948 12:22:48 -1589.240555c -5.11  -4.62c
iter: 949 12:32:16 -1589.240566c -5.07  -4.64c
Writing to output.gpw (mode='')

iter: 950 12:41:55 -1589.240575c -5.17  -4.60c
iter: 951 12:51:40 -1589.240588c -4.99  -4.59c
iter: 952 13:01:22 -1589.240614c -4.58  -4.53c
iter: 953 13:10:57 -1589.240633c -4.60  -4.40c
iter: 954 13:20:42 -1589.240660c -4.42  -4.48c
Writing to output.gpw (mode='')

iter: 955 13:30:36 -1589.240674c -4.98  -4.97c
iter: 956 13:40:18 -1589.240690c -4.77  -4.99c
iter: 957 13:49:54 -1589.240716c -4.51  -4.98c
iter: 958 13:59:33 -1589.240741c -4.62  -4.69c
iter: 959 14:09:21 -1589.240751c -4.99  -4.45c
Writing to output.gpw (mode='')

iter: 960 14:19:01 -1589.240780c -4.39  -4.47c
iter: 961 14:28:40 -1589.240798c -4.87  -5.03c
iter: 962 14:38:14 -1589.240813c -4.87  -4.95c
iter: 963 14:47:58 -1589.240828c -4.69  -4.76c
iter: 964 14:57:45 -1589.240844c -4.76  -4.99c
Writing to output.gpw (mode='')

iter: 965 15:07:26 -1589.240855c -5.03  -5.24c
iter: 966 15:17:00 -1589.240869c -4.89  -5.24c
iter: 967 15:26:42 -1589.240888c -4.65  -5.40c
iter: 968 15:36:11 -1589.240900c -4.89  -5.26c
iter: 969 15:45:53 -1589.240931c -4.36  -5.31c
Writing to output.gpw (mode='')

iter: 970 15:55:45 -1589.240946c -4.79  -4.84c
iter: 971 16:05:24 -1589.240969c -4.57  -4.89c
iter: 972 16:14:58 -1589.240982c -5.03  -5.22c
iter: 973 16:24:45 -1589.240995c -4.98  -5.33c
iter: 974 16:34:41 -1589.241012c -4.75  -5.34c
Writing to output.gpw (mode='')

iter: 975 16:44:30 -1589.241034c -4.58  -5.62c
iter: 976 16:54:23 -1589.241047c -4.98  -5.33c
iter: 977 17:04:08 -1589.241060c -4.98  -5.24c
iter: 978 17:13:55 -1589.241073c -5.03  -5.17c
iter: 979 17:23:40 -1589.241086c -5.01  -5.11c
Writing to output.gpw (mode='')

iter: 980 17:33:25 -1589.241126c -4.39  -5.07c
iter: 981 17:43:02 -1589.241144c -4.85  -4.81c
iter: 982 17:52:46 -1589.241175c -4.45  -4.80c
iter: 983 18:02:29 -1589.241192c -4.91  -4.90c
iter: 984 18:12:20 -1589.241238c -4.25  -4.90c
Writing to output.gpw (mode='')

iter: 985 18:21:56 -1589.241263c -4.71  -4.83c
iter: 986 18:31:22 -1589.241295c -4.44  -4.84c
iter: 987 18:41:06 -1589.241313c -4.91  -4.66c
iter: 988 18:50:48 -1589.241334c -4.66  -4.75c
iter: 989 19:00:24 -1589.241355c -4.70  -4.98c
Writing to output.gpw (mode='')

iter: 990 19:10:08 -1589.241379c -4.60  -5.09c
iter: 991 19:19:55 -1589.241413c -4.43  -5.15c
iter: 992 19:29:39 -1589.241432c -4.75  -4.88c
iter: 993 19:39:18 -1589.241455c -4.65  -5.02c
iter: 994 19:49:14 -1589.241474c -4.75  -4.89c
Writing to output.gpw (mode='')

iter: 995 19:58:55 -1589.241493c -4.70  -4.83c
iter: 996 20:08:39 -1589.241535c -4.28  -4.79c
iter: 997 20:18:25 -1589.241559c -4.52  -4.50c
iter: 998 20:28:09 -1589.241587c -4.65  -4.70c
iter: 999 20:37:37 -1589.241611c -4.47  -4.58c

Did not converge!

Here are some tips:

1) Make sure the geometry and spin-state is physically sound.
2) Use less aggressive density mixing.
3) Solve the eigenvalue problem more accurately at each scf-step.
4) Use a smoother distribution function for the occupation numbers.
5) Try adding more empty states.
6) Use enough k-points.
7) Don't let your structure optimization algorithm take too large steps.
8) Solve the Poisson equation more accurately.
9) Better initial guess for the wave functions.

See details here:

    https://wiki.fysik.dtu.dk/gpaw/documentation/convergence.html


