
  ___ ___ ___ _ _ _  
 |   |   |_  | | | | 
 | | | | | . | | | | 
 |__ |  _|___|_____|  22.8.0
 |___|_|             

User:   vazumah@c13.hercules
Date:   Sun Jan 22 12:43:15 2023
Arch:   x86_64
Pid:    9745
CWD:    /home/vazumah/Python_projects/LiNRR/autocad_start/slab_experiments/fixed_slab_def_vacuum/Li/bcc110/substrate
Python: 3.10.8
gpaw:   /home/vazumah/.conda/envs/GPAW/lib/python3.10/site-packages/gpaw
_gpaw:  /home/vazumah/.conda/envs/GPAW/lib/python3.10/site-packages/
        _gpaw.cpython-310-x86_64-linux-gnu.so
ase:    /home/vazumah/.conda/envs/GPAW/lib/python3.10/site-packages/ase (version 3.22.1)
numpy:  /home/vazumah/.conda/envs/GPAW/lib/python3.10/site-packages/numpy (version 1.24.1)
scipy:  /home/vazumah/.conda/envs/GPAW/lib/python3.10/site-packages/scipy (version 1.10.0)
libxc:  5.2.3
units:  Angstrom and eV
cores: 24
OpenMP: True
OMP_NUM_THREADS: 1

Input parameters:
  h: 0.16
  kpts: {size: [2, 2, 1]}
  maxiter: 999
  occupations: {name: fermi-dirac,
                width: 0.05}
  poissonsolver: {dipolelayer: xy}
  xc: BEEF-vdW

System changes: positions, numbers, cell, pbc, initial_charges, initial_magmoms 

Initialize ...

species:
  Li:
    name: Lithium
    id: 830b4218f175192f93f959cfc0aad614
    Z: 3.0
    valence: 1
    core: 2
    charge: 0.0
    file: /home/vazumah/.conda/envs/GPAW/share/gpaw/Li.PBE.gz
    compensation charges: {type: gauss,
                           rc: 0.33,
                           lmax: 2}
    cutoffs: {filter: 1.91,
              core: 2.55}
    valence states:
      #              energy  rcut
      - 2s(1.00)    -2.874   1.058
      - 2p(0.00)    -1.090   1.058
      -  s          24.337   1.058
  
    # Using partial waves for Li as LCAO basis

Reference energy: -7300.361529  # eV

Spin-paired calculation

Convergence criteria:
 Maximum [total energy] change in last 3 cyles: 0.0005 eV / electron
 Maximum integral of absolute [dens]ity change: 0.0001 electrons / valence electron
 Maximum integral of absolute [eigenst]ate change: 4e-08 eV^2 / valence electron
 Maximum number of scf [iter]ations: 999
 (Square brackets indicate name in SCF output, whereas a 'c' in
 the SCF output indicates the quantity has converged.)

Symmetries present (total): 4

  ( 1  0  0)  ( 1  0  0)  (-1  0  0)  (-1  0  0)
  ( 1 -1  0)  ( 0  1  0)  ( 0 -1  0)  (-1  1  0)
  ( 0  0  1)  ( 0  0  1)  ( 0  0  1)  ( 0  0  1)
Note: your k-points are not as symmetric as your crystal!

4 k-points: 2 x 2 x 1 Monkhorst-Pack grid
2 k-points in the irreducible part of the Brillouin zone
       k-points in crystal coordinates                weights
   0:     0.25000000   -0.25000000    0.00000000          2/4
   1:     0.25000000    0.25000000    0.00000000          2/4

Wave functions: Uniform real-space grid
  Kinetic energy operator: 8*3+1=25 point O(h^6) finite-difference Laplacian
  ScaLapack parameters: grid=1x1, blocksize=None
  Wavefunction extrapolation:
    Improved wavefunction reuse through dual PAW basis 

Occupation numbers: Fermi-Dirac:
  width: 0.0500  # eV
 

Eigensolver
   Davidson(niter=2) 

Densities:
  Coarse grid: 48*48*168 grid
  Fine grid: 96*96*336 grid
  Total Charge: 0.000000 

Density mixing:
  Method: separate
  Backend: pulay
  Linear mixing parameter: 0.05
  old densities: 5
  Damping of long wavelength oscillations: 50 

Hamiltonian:
  XC and Coulomb potentials evaluated on a 96*96*336 grid
  Using the BEEF-vdW Exchange-Correlation functional
  Interpolation: tri-quintic (5. degree polynomial)
  Poisson solver: FastPoissonSolver using
    Stencil: 8*3+1=25 point O(h^6) finite-difference Laplacian
    FFT axes: [0, 1]
    FST axes: [2]

Dipole correction along z-axis 

XC parameters: BEEF-vdW with 2 nearest neighbor stencil

Memory estimate:
  Process memory now: 97.89 MiB
  Calculator: 56.30 MiB
    Density: 23.17 MiB
      Arrays: 6.28 MiB
      Localized functions: 14.52 MiB
      Mixer: 2.37 MiB
    Hamiltonian: 5.25 MiB
      Arrays: 4.10 MiB
      XC: 0.00 MiB
      Poisson: 0.00 MiB
      vbar: 1.15 MiB
    Wavefunctions: 27.88 MiB
      Arrays psit_nG: 12.34 MiB
      Eigensolver: 14.82 MiB
      Projections: 0.01 MiB
      Projectors: 0.72 MiB

Total number of cores used: 24
Parallelization over k-points: 2
Domain decomposition: 1 x 2 x 6

Number of atoms: 36
Number of atomic orbitals: 144
Number of bands in calculation: 26
Number of valence electrons: 36
Bands to converge: occupied

... initialized

Initializing position-dependent things.

Density initialized from atomic densities
Creating initial wave functions:
  26 bands from LCAO basis set

                                             
                                             
                                             
                                             
                                             
                  Li      Li      Li         
                    Li      Li      Li       
             Li      Li      Li              
       Li     LLi     LLi     Li             
         Li      Li      Li                  
                                             
                  Li      Li      Li         
             Li     LLi     LLi     Li       
              Li      Li      Li             
       Li      Li      Li                    
         Li      Li      Li                  
                                             
                                             
                                             
                                             
                                             

Positions:
   0 Li     0.000000    2.286836   10.000000    ( 0.0000,  0.0000,  0.0000)
   1 Li     3.234074    2.286836   10.000000    ( 0.0000,  0.0000,  0.0000)
   2 Li     6.468148    2.286836   10.000000    ( 0.0000,  0.0000,  0.0000)
   3 Li     1.617037    4.573671   10.000000    ( 0.0000,  0.0000,  0.0000)
   4 Li     4.851111    4.573671   10.000000    ( 0.0000,  0.0000,  0.0000)
   5 Li     8.085185    4.573671   10.000000    ( 0.0000,  0.0000,  0.0000)
   6 Li     3.234074    6.860507   10.000000    ( 0.0000,  0.0000,  0.0000)
   7 Li     6.468148    6.860507   10.000000    ( 0.0000,  0.0000,  0.0000)
   8 Li     9.702222    6.860507   10.000000    ( 0.0000,  0.0000,  0.0000)
   9 Li     0.000000    0.000000   12.286836    ( 0.0000,  0.0000,  0.0000)
  10 Li     3.234074    0.000000   12.286836    ( 0.0000,  0.0000,  0.0000)
  11 Li     6.468148    0.000000   12.286836    ( 0.0000,  0.0000,  0.0000)
  12 Li     1.617037    2.286836   12.286836    ( 0.0000,  0.0000,  0.0000)
  13 Li     4.851111    2.286836   12.286836    ( 0.0000,  0.0000,  0.0000)
  14 Li     8.085185    2.286836   12.286836    ( 0.0000,  0.0000,  0.0000)
  15 Li     3.234074    4.573671   12.286836    ( 0.0000,  0.0000,  0.0000)
  16 Li     6.468148    4.573671   12.286836    ( 0.0000,  0.0000,  0.0000)
  17 Li     9.702222    4.573671   12.286836    ( 0.0000,  0.0000,  0.0000)
  18 Li     0.000000    2.286836   14.573671    ( 0.0000,  0.0000,  0.0000)
  19 Li     3.234074    2.286836   14.573671    ( 0.0000,  0.0000,  0.0000)
  20 Li     6.468148    2.286836   14.573671    ( 0.0000,  0.0000,  0.0000)
  21 Li     1.617037    4.573671   14.573671    ( 0.0000,  0.0000,  0.0000)
  22 Li     4.851111    4.573671   14.573671    ( 0.0000,  0.0000,  0.0000)
  23 Li     8.085185    4.573671   14.573671    ( 0.0000,  0.0000,  0.0000)
  24 Li     3.234074    6.860507   14.573671    ( 0.0000,  0.0000,  0.0000)
  25 Li     6.468148    6.860507   14.573671    ( 0.0000,  0.0000,  0.0000)
  26 Li     9.702222    6.860507   14.573671    ( 0.0000,  0.0000,  0.0000)
  27 Li     0.000000    0.000000   16.860507    ( 0.0000,  0.0000,  0.0000)
  28 Li     3.234074    0.000000   16.860507    ( 0.0000,  0.0000,  0.0000)
  29 Li     6.468148    0.000000   16.860507    ( 0.0000,  0.0000,  0.0000)
  30 Li     1.617037    2.286836   16.860507    ( 0.0000,  0.0000,  0.0000)
  31 Li     4.851111    2.286836   16.860507    ( 0.0000,  0.0000,  0.0000)
  32 Li     8.085185    2.286836   16.860507    ( 0.0000,  0.0000,  0.0000)
  33 Li     3.234074    4.573671   16.860507    ( 0.0000,  0.0000,  0.0000)
  34 Li     6.468148    4.573671   16.860507    ( 0.0000,  0.0000,  0.0000)
  35 Li     9.702222    4.573671   16.860507    ( 0.0000,  0.0000,  0.0000)

Unit cell:
           periodic     x           y           z      points  spacing
  1. axis:    yes    9.702222    0.000000    0.000000    48     0.1650
  2. axis:    yes    4.851111    6.860507    0.000000    48     0.1429
  3. axis:    no     0.000000    0.000000   26.860507   168     0.1599

  Lengths:   9.702222   8.402371  26.860507
  Angles:   90.000000  90.000000  54.735610

Effective grid spacing dv^(1/3) = 0.1665

     iter     time        total  log10-change:
                         energy  eigst   dens
iter:   1 12:45:08  -202.419831
iter:   2 12:46:38  -198.465839  +0.59  -0.49
iter:   3 12:48:13  -196.744385  +1.46  -0.60
iter:   4 12:49:41  -199.520592  +0.45  -0.76
Writing to output.gpw (mode='')

iter:   5 12:51:07  -198.575774  +0.44  -0.63
iter:   6 12:52:34  -195.843359  +1.13  -0.63
iter:   7 12:54:08  -196.514518  +0.58  -0.97
iter:   8 12:55:42  -195.806711  -0.77  -0.85
iter:   9 12:57:16  -198.071437  +0.95  -0.96
Writing to output.gpw (mode='')

iter:  10 12:58:48  -197.712346  +0.10  -0.69
iter:  11 13:00:16  -195.209889  +0.95  -0.69
iter:  12 13:01:43  -195.241904  -0.51  -1.34
iter:  13 13:03:16  -195.287238  -0.69  -1.36
iter:  14 13:04:41  -195.179159  -0.02  -1.27
Writing to output.gpw (mode='')

iter:  15 13:06:11  -195.197228  -0.30  -1.66
iter:  16 13:07:34  -195.195426  -1.12  -1.73
iter:  17 13:09:00  -195.138340  -0.94  -1.58
iter:  18 13:10:25  -195.144379  -0.82  -2.19
iter:  19 13:11:50  -195.143713c -1.94  -2.07
Writing to output.gpw (mode='')

iter:  20 13:13:24  -195.162181  -0.92  -2.17
iter:  21 13:14:51  -195.164502  -1.51  -1.72
iter:  22 13:16:24  -195.178267c -1.34  -1.64
iter:  23 13:17:50  -195.171480c -2.19  -1.55
iter:  24 13:19:22  -195.138976  -1.33  -1.58
Writing to output.gpw (mode='')

iter:  25 13:20:49  -195.141350  -1.07  -2.05
iter:  26 13:22:12  -195.141098c -1.80  -2.33
iter:  27 13:23:41  -195.140052c -2.71  -2.40
iter:  28 13:25:12  -195.140136c -3.10  -2.37
iter:  29 13:26:45  -195.140643c -2.39  -2.49
Writing to output.gpw (mode='')

iter:  30 13:28:16  -195.144417c -2.11  -2.56
iter:  31 13:29:41  -195.139947c -2.03  -1.98
iter:  32 13:31:06  -195.140190c -2.23  -2.70
iter:  33 13:32:33  -195.140245c -3.30  -2.72
iter:  34 13:33:57  -195.141291c -2.02  -2.71
Writing to output.gpw (mode='')

iter:  35 13:35:21  -195.141323c -2.51  -2.42
iter:  36 13:36:53  -195.141781c -2.48  -2.38
iter:  37 13:38:25  -195.141478c -3.24  -2.33
iter:  38 13:39:50  -195.139969c -2.67  -2.39
iter:  39 13:41:21  -195.140010c -2.71  -3.20
Writing to output.gpw (mode='')

iter:  40 13:42:46  -195.140065c -4.04  -3.05
iter:  41 13:44:13  -195.140102c -4.37  -3.50
iter:  42 13:45:35  -195.140102c -4.52  -3.55
iter:  43 13:47:01  -195.140082c -4.20  -3.57
iter:  44 13:48:27  -195.140113c -4.62  -3.63
Writing to output.gpw (mode='')

iter:  45 13:49:47  -195.140112c -4.70  -3.65
iter:  46 13:51:18  -195.140110c -4.61  -3.73
iter:  47 13:52:45  -195.140128c -4.72  -3.71
iter:  48 13:54:08  -195.140136c -4.78  -3.89
iter:  49 13:55:29  -195.140140c -4.97  -3.95
Writing to output.gpw (mode='')

iter:  50 13:56:55  -195.140137c -5.19  -3.99
iter:  51 13:58:21  -195.140151c -5.07  -3.95
iter:  52 13:59:46  -195.140144c -5.33  -4.24c
iter:  53 14:01:11  -195.140132c -5.39  -4.37c
iter:  54 14:02:42  -195.140141c -5.33  -4.42c
Writing to output.gpw (mode='')

iter:  55 14:04:20  -195.140134c -5.46  -4.23c
iter:  56 14:05:45  -195.140135c -5.44  -4.59c
iter:  57 14:07:15  -195.140137c -5.65  -4.60c
iter:  58 14:08:41  -195.140138c -5.71  -4.67c
iter:  59 14:10:05  -195.140137c -5.78  -4.75c
Writing to output.gpw (mode='')

iter:  60 14:11:34  -195.140136c -5.83  -4.87c
iter:  61 14:13:06  -195.140136c -5.85  -4.98c
iter:  62 14:14:34  -195.140135c -5.92  -5.23c
iter:  63 14:16:00  -195.140135c -5.89  -5.34c
iter:  64 14:17:27  -195.140135c -6.03  -5.40c
Writing to output.gpw (mode='')

iter:  65 14:18:59  -195.140135c -6.01  -5.43c
iter:  66 14:20:23  -195.140135c -6.18  -5.47c
iter:  67 14:21:47  -195.140134c -6.27  -5.61c
iter:  68 14:23:08  -195.140134c -6.31  -5.44c
iter:  69 14:24:37  -195.140134c -6.36  -5.38c
Writing to output.gpw (mode='')

iter:  70 14:26:05  -195.140134c -6.40  -5.56c
iter:  71 14:27:42  -195.140135c -6.05  -5.51c
iter:  72 14:29:11  -195.140135c -6.53  -5.38c
iter:  73 14:30:42  -195.140135c -6.46  -5.36c
iter:  74 14:32:20  -195.140135c -6.78  -5.31c
Writing to output.gpw (mode='')

iter:  75 14:33:50  -195.140135c -6.85  -5.38c
iter:  76 14:35:23  -195.140135c -6.58  -5.45c
iter:  77 14:36:51  -195.140135c -6.90  -5.29c
iter:  78 14:38:17  -195.140135c -6.54  -5.26c
iter:  79 14:39:59  -195.140135c -7.03  -5.21c
Writing to output.gpw (mode='')

iter:  80 14:41:25  -195.140135c -7.19  -5.18c
iter:  81 14:42:55  -195.140135c -7.19  -5.28c
iter:  82 14:44:23  -195.140134c -7.24  -5.19c
iter:  83 14:45:51  -195.140134c -7.42c -5.53c

Converged after 83 iterations.

Dipole moment: (-5.410331, -4.119732, 0.000003) |e|*Ang

Energy contributions relative to reference atoms: (reference = -7300.361529)

Kinetic:       +107.322266
Potential:      -83.543000
External:        +0.000000
XC:            -218.547803
Entropy (-ST):   -0.190219
Local:           -0.276487
--------------------------
Free energy:   -195.235244
Extrapolated:  -195.140134

Dipole-layer corrected work functions: 3.606162, 3.606154 eV

Showing all kpts
 Kpt  Band  Eigenvalues  Occupancy
  0    16     -3.67093    1.57012
  0    17     -3.48983    0.17789
  0    18     -3.48245    0.15537
  0    19     -3.31996    0.00651

  1    16     -3.98253    1.99892
  1    17     -3.69236    1.69730
  1    18     -3.68531    1.65926
  1    19     -3.58018    0.74586


Fermi level: -3.60616

No gap
Writing to output.gpw (mode='')


Forces in eV/Ang:
  0 Li    0.00000    0.00000   -0.08066
  1 Li    0.00000    0.00000   -0.08066
  2 Li   -0.00000    0.00000   -0.08066
  3 Li   -0.00000   -0.00000   -0.08066
  4 Li    0.00000   -0.00000   -0.08066
  5 Li    0.00000   -0.00000   -0.08066
  6 Li   -0.00000    0.00000   -0.08066
  7 Li    0.00000    0.00000   -0.08066
  8 Li    0.00000    0.00000   -0.08066
  9 Li    0.00000    0.00000   -0.04318
 10 Li   -0.00000    0.00000   -0.04318
 11 Li    0.00000    0.00000   -0.04318
 12 Li   -0.00000   -0.00000   -0.04318
 13 Li    0.00000    0.00000   -0.04318
 14 Li    0.00000   -0.00000   -0.04318
 15 Li    0.00000    0.00000   -0.04318
 16 Li   -0.00000    0.00000   -0.04318
 17 Li    0.00000   -0.00000   -0.04318
 18 Li    0.00000    0.00000    0.04318
 19 Li    0.00000   -0.00000    0.04318
 20 Li   -0.00000   -0.00000    0.04318
 21 Li   -0.00000    0.00000    0.04318
 22 Li    0.00000   -0.00000    0.04318
 23 Li    0.00000    0.00000    0.04318
 24 Li   -0.00000    0.00000    0.04318
 25 Li    0.00000    0.00000    0.04318
 26 Li    0.00000    0.00000    0.04318
 27 Li    0.00000    0.00000    0.08066
 28 Li   -0.00000    0.00000    0.08066
 29 Li    0.00000    0.00000    0.08066
 30 Li   -0.00000   -0.00000    0.08066
 31 Li    0.00000    0.00000    0.08066
 32 Li    0.00000   -0.00000    0.08066
 33 Li    0.00000    0.00000    0.08066
 34 Li   -0.00000    0.00000    0.08066
 35 Li    0.00000   -0.00000    0.08066

System changes: positions 

Initializing position-dependent things.

Density initialized from wave functions
                                             
                                             
                                             
                                             
                                             
                  Li      Li      Li         
                    Li      Li      Li       
             Li      Li      Li              
       Li     LLi     LLi     Li             
         Li      Li      Li                  
                                             
                  Li      Li      Li         
             Li     LLi     LLi     Li       
              Li      Li      Li             
       Li      Li      Li                    
         Li      Li      Li                  
                                             
                                             
                                             
                                             
                                             

Positions:
   0 Li     0.000000    2.286836   10.000000    ( 0.0000,  0.0000,  0.0000)
   1 Li     3.234074    2.286836   10.000000    ( 0.0000,  0.0000,  0.0000)
   2 Li     6.468148    2.286836   10.000000    ( 0.0000,  0.0000,  0.0000)
   3 Li     1.617037    4.573671   10.000000    ( 0.0000,  0.0000,  0.0000)
   4 Li     4.851111    4.573671   10.000000    ( 0.0000,  0.0000,  0.0000)
   5 Li     8.085185    4.573671   10.000000    ( 0.0000,  0.0000,  0.0000)
   6 Li     3.234074    6.860507   10.000000    ( 0.0000,  0.0000,  0.0000)
   7 Li     6.468148    6.860507   10.000000    ( 0.0000,  0.0000,  0.0000)
   8 Li     9.702222    6.860507   10.000000    ( 0.0000,  0.0000,  0.0000)
   9 Li     0.000000    0.000000   12.286836    ( 0.0000,  0.0000,  0.0000)
  10 Li     3.234074    0.000000   12.286836    ( 0.0000,  0.0000,  0.0000)
  11 Li     6.468148    0.000000   12.286836    ( 0.0000,  0.0000,  0.0000)
  12 Li     1.617037    2.286836   12.286836    ( 0.0000,  0.0000,  0.0000)
  13 Li     4.851111    2.286836   12.286836    ( 0.0000,  0.0000,  0.0000)
  14 Li     8.085185    2.286836   12.286836    ( 0.0000,  0.0000,  0.0000)
  15 Li     3.234074    4.573671   12.286836    ( 0.0000,  0.0000,  0.0000)
  16 Li     6.468148    4.573671   12.286836    ( 0.0000,  0.0000,  0.0000)
  17 Li     9.702222    4.573671   12.286836    ( 0.0000,  0.0000,  0.0000)
  18 Li     0.000000    2.286836   14.574288    ( 0.0000,  0.0000,  0.0000)
  19 Li     3.234074    2.286836   14.574288    ( 0.0000,  0.0000,  0.0000)
  20 Li     6.468148    2.286836   14.574288    ( 0.0000,  0.0000,  0.0000)
  21 Li     1.617037    4.573671   14.574288    ( 0.0000,  0.0000,  0.0000)
  22 Li     4.851111    4.573671   14.574288    ( 0.0000,  0.0000,  0.0000)
  23 Li     8.085185    4.573671   14.574288    ( 0.0000,  0.0000,  0.0000)
  24 Li     3.234074    6.860507   14.574288    ( 0.0000,  0.0000,  0.0000)
  25 Li     6.468148    6.860507   14.574288    ( 0.0000,  0.0000,  0.0000)
  26 Li     9.702222    6.860507   14.574288    ( 0.0000,  0.0000,  0.0000)
  27 Li     0.000000    0.000000   16.861659    ( 0.0000,  0.0000,  0.0000)
  28 Li     3.234074    0.000000   16.861659    ( 0.0000,  0.0000,  0.0000)
  29 Li     6.468148    0.000000   16.861659    ( 0.0000,  0.0000,  0.0000)
  30 Li     1.617037    2.286836   16.861659    ( 0.0000,  0.0000,  0.0000)
  31 Li     4.851111    2.286836   16.861659    ( 0.0000,  0.0000,  0.0000)
  32 Li     8.085185    2.286836   16.861659    ( 0.0000,  0.0000,  0.0000)
  33 Li     3.234074    4.573671   16.861659    ( 0.0000,  0.0000,  0.0000)
  34 Li     6.468148    4.573671   16.861659    ( 0.0000,  0.0000,  0.0000)
  35 Li     9.702222    4.573671   16.861659    ( 0.0000,  0.0000,  0.0000)

Unit cell:
           periodic     x           y           z      points  spacing
  1. axis:    yes    9.702222    0.000000    0.000000    48     0.1650
  2. axis:    yes    4.851111    6.860507    0.000000    48     0.1429
  3. axis:    no     0.000000    0.000000   26.860507   168     0.1599

  Lengths:   9.702222   8.402371  26.860507
  Angles:   90.000000  90.000000  54.735610

Effective grid spacing dv^(1/3) = 0.1665

     iter     time        total  log10-change:
                         energy  eigst   dens
iter:   1 14:47:20  -195.145148  -1.91
iter:   2 14:48:42  -195.145221  -1.91  -2.07
iter:   3 14:50:11  -195.141153c -3.06  -2.03
iter:   4 14:51:43  -195.141635c -2.41  -2.59
Writing to output.gpw (mode='')

iter:   5 14:53:15  -195.141346c -3.32  -2.66
iter:   6 14:54:39  -195.141224c -4.01  -3.07
iter:   7 14:56:03  -195.141220c -3.63  -3.39
iter:   8 14:57:30  -195.141236c -4.25  -3.56
iter:   9 14:59:00  -195.141220c -4.75  -3.90
Writing to output.gpw (mode='')

iter:  10 15:00:28  -195.141216c -4.87  -4.01c
iter:  11 15:01:56  -195.141218c -5.33  -4.10c
iter:  12 15:03:18  -195.141222c -5.16  -4.07c
iter:  13 15:04:50  -195.141223c -5.50  -3.97
iter:  14 15:06:18  -195.141210c -5.83  -3.99
Writing to output.gpw (mode='')

iter:  15 15:07:53  -195.141211c -6.29  -4.60c
iter:  16 15:09:28  -195.141211c -6.42  -4.67c
iter:  17 15:11:03  -195.141212c -6.58  -4.66c
iter:  18 15:12:33  -195.141212c -6.51  -4.73c
iter:  19 15:14:08  -195.141211c -6.68  -4.78c
Writing to output.gpw (mode='')

iter:  20 15:15:41  -195.141211c -6.87  -4.80c
iter:  21 15:17:04  -195.141210c -7.04  -4.87c
iter:  22 15:18:39  -195.141210c -7.25  -5.01c
iter:  23 15:20:05  -195.141210c -7.27  -5.11c
iter:  24 15:21:32  -195.141210c -7.38  -5.37c
Writing to output.gpw (mode='')

iter:  25 15:23:01  -195.141210c -7.27  -5.42c
iter:  26 15:24:25  -195.141210c -7.65c -5.46c

Converged after 26 iterations.

Dipole moment: (-5.410324, -4.119728, -0.000102) |e|*Ang

Energy contributions relative to reference atoms: (reference = -7300.361529)

Kinetic:       +107.287238
Potential:      -83.520342
External:        +0.000000
XC:            -218.536621
Entropy (-ST):   -0.190215
Local:           -0.276378
--------------------------
Free energy:   -195.236318
Extrapolated:  -195.141210

Dipole-layer corrected work functions: 3.606096, 3.606374 eV

Showing all kpts
 Kpt  Band  Eigenvalues  Occupancy
  0    16     -3.67126    1.57183
  0    17     -3.48978    0.17747
  0    18     -3.48220    0.15445
  0    19     -3.31953    0.00645

  1    16     -3.98273    1.99893
  1    17     -3.69239    1.69707
  1    18     -3.68504    1.65733
  1    19     -3.58041    0.74730


Fermi level: -3.60623

No gap
Writing to output.gpw (mode='')


Forces in eV/Ang:
  0 Li    0.00000   -0.00000   -0.08067
  1 Li   -0.00000    0.00000   -0.08067
  2 Li    0.00000    0.00000   -0.08067
  3 Li    0.00000   -0.00000   -0.08067
  4 Li    0.00000    0.00000   -0.08067
  5 Li   -0.00000   -0.00000   -0.08067
  6 Li    0.00000    0.00000   -0.08067
  7 Li   -0.00000    0.00000   -0.08067
  8 Li    0.00000    0.00000   -0.08067
  9 Li    0.00000    0.00000   -0.04256
 10 Li   -0.00000    0.00000   -0.04256
 11 Li    0.00000    0.00000   -0.04256
 12 Li   -0.00000   -0.00000   -0.04256
 13 Li    0.00000    0.00000   -0.04256
 14 Li    0.00000   -0.00000   -0.04256
 15 Li    0.00000    0.00000   -0.04256
 16 Li   -0.00000    0.00000   -0.04256
 17 Li    0.00000   -0.00000   -0.04256
 18 Li    0.00000    0.00000    0.04306
 19 Li    0.00000   -0.00000    0.04306
 20 Li   -0.00000   -0.00000    0.04306
 21 Li   -0.00000    0.00000    0.04306
 22 Li    0.00000   -0.00000    0.04306
 23 Li    0.00000    0.00000    0.04306
 24 Li   -0.00000    0.00000    0.04306
 25 Li    0.00000    0.00000    0.04306
 26 Li    0.00000    0.00000    0.04306
 27 Li    0.00000    0.00000    0.08019
 28 Li   -0.00000    0.00000    0.08019
 29 Li    0.00000    0.00000    0.08019
 30 Li   -0.00000   -0.00000    0.08019
 31 Li    0.00000    0.00000    0.08019
 32 Li    0.00000   -0.00000    0.08019
 33 Li    0.00000    0.00000    0.08019
 34 Li   -0.00000    0.00000    0.08019
 35 Li    0.00000   -0.00000    0.08019

System changes: positions 

Initializing position-dependent things.

Density initialized from wave functions
                                             
                                             
                                             
                                             
                                             
                  Li      Li      Li         
                    Li      Li      Li       
             Li      Li      Li              
       Li     LLi     LLi     Li             
         Li      Li      Li                  
                                             
                  Li      Li      Li         
             Li     LLi     LLi     Li       
              Li      Li      Li             
       Li      Li      Li                    
         Li      Li      Li                  
                                             
                                             
                                             
                                             
                                             

Positions:
   0 Li     0.000000    2.286836   10.000000    ( 0.0000,  0.0000,  0.0000)
   1 Li     3.234074    2.286836   10.000000    ( 0.0000,  0.0000,  0.0000)
   2 Li     6.468148    2.286836   10.000000    ( 0.0000,  0.0000,  0.0000)
   3 Li     1.617037    4.573671   10.000000    ( 0.0000,  0.0000,  0.0000)
   4 Li     4.851111    4.573671   10.000000    ( 0.0000,  0.0000,  0.0000)
   5 Li     8.085185    4.573671   10.000000    ( 0.0000,  0.0000,  0.0000)
   6 Li     3.234074    6.860507   10.000000    ( 0.0000,  0.0000,  0.0000)
   7 Li     6.468148    6.860507   10.000000    ( 0.0000,  0.0000,  0.0000)
   8 Li     9.702222    6.860507   10.000000    ( 0.0000,  0.0000,  0.0000)
   9 Li     0.000000    0.000000   12.286836    ( 0.0000,  0.0000,  0.0000)
  10 Li     3.234074    0.000000   12.286836    ( 0.0000,  0.0000,  0.0000)
  11 Li     6.468148    0.000000   12.286836    ( 0.0000,  0.0000,  0.0000)
  12 Li     1.617037    2.286836   12.286836    ( 0.0000,  0.0000,  0.0000)
  13 Li     4.851111    2.286836   12.286836    ( 0.0000,  0.0000,  0.0000)
  14 Li     8.085185    2.286836   12.286836    ( 0.0000,  0.0000,  0.0000)
  15 Li     3.234074    4.573671   12.286836    ( 0.0000,  0.0000,  0.0000)
  16 Li     6.468148    4.573671   12.286836    ( 0.0000,  0.0000,  0.0000)
  17 Li     9.702222    4.573671   12.286836    ( 0.0000,  0.0000,  0.0000)
  18 Li     0.000000    2.286836   14.579658    ( 0.0000,  0.0000,  0.0000)
  19 Li     3.234074    2.286836   14.579658    ( 0.0000,  0.0000,  0.0000)
  20 Li     6.468148    2.286836   14.579658    ( 0.0000,  0.0000,  0.0000)
  21 Li     1.617037    4.573671   14.579658    ( 0.0000,  0.0000,  0.0000)
  22 Li     4.851111    4.573671   14.579658    ( 0.0000,  0.0000,  0.0000)
  23 Li     8.085185    4.573671   14.579658    ( 0.0000,  0.0000,  0.0000)
  24 Li     3.234074    6.860507   14.579658    ( 0.0000,  0.0000,  0.0000)
  25 Li     6.468148    6.860507   14.579658    ( 0.0000,  0.0000,  0.0000)
  26 Li     9.702222    6.860507   14.579658    ( 0.0000,  0.0000,  0.0000)
  27 Li    -0.000000   -0.000000   16.871659    ( 0.0000,  0.0000,  0.0000)
  28 Li     3.234074   -0.000000   16.871659    ( 0.0000,  0.0000,  0.0000)
  29 Li     6.468148   -0.000000   16.871659    ( 0.0000,  0.0000,  0.0000)
  30 Li     1.617037    2.286836   16.871659    ( 0.0000,  0.0000,  0.0000)
  31 Li     4.851111    2.286836   16.871659    ( 0.0000,  0.0000,  0.0000)
  32 Li     8.085185    2.286836   16.871659    ( 0.0000,  0.0000,  0.0000)
  33 Li     3.234074    4.573671   16.871659    ( 0.0000,  0.0000,  0.0000)
  34 Li     6.468148    4.573671   16.871659    ( 0.0000,  0.0000,  0.0000)
  35 Li     9.702222    4.573671   16.871659    ( 0.0000,  0.0000,  0.0000)

Unit cell:
           periodic     x           y           z      points  spacing
  1. axis:    yes    9.702222    0.000000    0.000000    48     0.1650
  2. axis:    yes    4.851111    6.860507    0.000000    48     0.1429
  3. axis:    no     0.000000    0.000000   26.860507   168     0.1599

  Lengths:   9.702222   8.402371  26.860507
  Angles:   90.000000  90.000000  54.735610

Effective grid spacing dv^(1/3) = 0.1665

     iter     time        total  log10-change:
                         energy  eigst   dens
iter:   1 15:25:53  -195.487708  -0.05
iter:   2 15:27:15  -195.446612  -0.10  -1.13
iter:   3 15:28:42  -195.160148  -1.22  -1.11
iter:   4 15:30:06  -195.160994  -0.57  -1.65
Writing to output.gpw (mode='')

iter:   5 15:31:35  -195.151684c -1.38  -1.81
iter:   6 15:33:03  -195.150428c -2.02  -2.21
iter:   7 15:34:33  -195.150332c -2.05  -2.39
iter:   8 15:35:58  -195.150020c -2.22  -2.37
iter:   9 15:37:27  -195.150250c -2.49  -2.89
Writing to output.gpw (mode='')

iter:  10 15:38:48  -195.150322c -2.77  -3.09
iter:  11 15:40:18  -195.150426c -2.97  -3.10
iter:  12 15:41:43  -195.150315c -3.38  -3.09
iter:  13 15:43:12  -195.150355c -3.60  -3.48
iter:  14 15:44:40  -195.150425c -3.63  -3.37
Writing to output.gpw (mode='')

iter:  15 15:46:19  -195.150358c -3.94  -3.16
iter:  16 15:47:45  -195.150334c -4.04  -3.42
iter:  17 15:49:17  -195.150330c -4.12  -3.60
iter:  18 15:50:43  -195.150334c -4.41  -3.61
iter:  19 15:52:14  -195.150318c -4.56  -3.58
Writing to output.gpw (mode='')

iter:  20 15:53:47  -195.150333c -5.03  -3.58
iter:  21 15:55:28  -195.150328c -5.34  -3.47
iter:  22 15:57:02  -195.150326c -5.28  -3.58
iter:  23 15:58:33  -195.150321c -4.88  -3.56
iter:  24 16:00:04  -195.150327c -5.12  -3.67
Writing to output.gpw (mode='')

iter:  25 16:01:36  -195.150328c -5.26  -3.73
iter:  26 16:03:05  -195.150325c -5.50  -3.75
iter:  27 16:04:33  -195.150321c -5.82  -3.78
iter:  28 16:06:02  -195.150311c -5.37  -3.79
iter:  29 16:07:32  -195.150306c -5.88  -4.03c
Writing to output.gpw (mode='')

iter:  30 16:09:06  -195.150305c -6.02  -4.22c
iter:  31 16:10:47  -195.150303c -6.02  -4.27c
iter:  32 16:12:18  -195.150304c -6.04  -4.39c
iter:  33 16:13:38  -195.150304c -6.24  -4.43c
iter:  34 16:15:03  -195.150306c -6.39  -4.48c
Writing to output.gpw (mode='')

iter:  35 16:16:29  -195.150305c -6.61  -4.50c
iter:  36 16:17:58  -195.150306c -6.41  -4.73c
iter:  37 16:19:24  -195.150306c -6.45  -5.02c
iter:  38 16:20:52  -195.150306c -6.36  -5.04c
iter:  39 16:22:24  -195.150306c -6.97  -5.06c
Writing to output.gpw (mode='')

iter:  40 16:24:02  -195.150306c -7.04  -5.28c
iter:  41 16:25:34  -195.150306c -7.06  -5.31c
iter:  42 16:27:03  -195.150306c -7.11  -5.29c
iter:  43 16:28:33  -195.150306c -7.15  -5.27c
iter:  44 16:30:04  -195.150306c -7.23  -5.24c
Writing to output.gpw (mode='')

iter:  45 16:31:48  -195.150306c -7.11  -5.24c
iter:  46 16:33:21  -195.150306c -7.39  -5.20c
iter:  47 16:34:49  -195.150306c -7.54c -5.18c

Converged after 47 iterations.

Dipole moment: (-5.410274, -4.119697, -0.001201) |e|*Ang

Energy contributions relative to reference atoms: (reference = -7300.361529)

Kinetic:       +106.986003
Potential:      -83.325410
External:        +0.000000
XC:            -218.440193
Entropy (-ST):   -0.190187
Local:           -0.275612
--------------------------
Free energy:   -195.245400
Extrapolated:  -195.150306

Dipole-layer corrected work functions: 3.605100, 3.608365 eV

Showing all kpts
 Kpt  Band  Eigenvalues  Occupancy
  0    16     -3.67396    1.58650
  0    17     -3.48918    0.17398
  0    18     -3.47990    0.14667
  0    19     -3.31564    0.00591

  1    16     -3.98428    1.99895
  1    17     -3.69257    1.69540
  1    18     -3.68259    1.64025
  1    19     -3.58222    0.75969


Fermi level: -3.60673

No gap
Writing to output.gpw (mode='')


Forces in eV/Ang:
  0 Li    0.00000    0.00000   -0.08081
  1 Li    0.00000   -0.00000   -0.08081
  2 Li   -0.00000   -0.00000   -0.08081
  3 Li   -0.00000    0.00000   -0.08081
  4 Li    0.00000   -0.00000   -0.08081
  5 Li    0.00000    0.00000   -0.08081
  6 Li   -0.00000    0.00000   -0.08081
  7 Li    0.00000    0.00000   -0.08081
  8 Li    0.00000    0.00000   -0.08081
  9 Li    0.00000    0.00000   -0.03700
 10 Li   -0.00000    0.00000   -0.03700
 11 Li    0.00000    0.00000   -0.03700
 12 Li   -0.00000   -0.00000   -0.03700
 13 Li    0.00000    0.00000   -0.03700
 14 Li    0.00000   -0.00000   -0.03700
 15 Li    0.00000    0.00000   -0.03700
 16 Li   -0.00000    0.00000   -0.03700
 17 Li    0.00000   -0.00000   -0.03700
 18 Li    0.00000    0.00000    0.04168
 19 Li    0.00000   -0.00000    0.04168
 20 Li   -0.00000   -0.00000    0.04168
 21 Li   -0.00000    0.00000    0.04168
 22 Li    0.00000   -0.00000    0.04168
 23 Li    0.00000    0.00000    0.04168
 24 Li   -0.00000    0.00000    0.04168
 25 Li    0.00000    0.00000    0.04168
 26 Li    0.00000    0.00000    0.04168
 27 Li    0.00000    0.00000    0.07608
 28 Li   -0.00000    0.00000    0.07608
 29 Li    0.00000    0.00000    0.07608
 30 Li   -0.00000   -0.00000    0.07608
 31 Li    0.00000    0.00000    0.07608
 32 Li    0.00000   -0.00000    0.07608
 33 Li    0.00000    0.00000    0.07608
 34 Li   -0.00000    0.00000    0.07608
 35 Li    0.00000   -0.00000    0.07608

System changes: positions 

Initializing position-dependent things.

Density initialized from wave functions
                                             
                                             
                                             
                                             
                                             
                  Li      Li      Li         
                    Li      Li      Li       
             Li      Li      Li              
       Li     LLi     LLi     Li             
         Li      Li      Li                  
                                             
                  Li      Li      Li         
             Li     LLi     LLi     Li       
              Li      Li      Li             
       Li      Li      Li                    
         Li      Li      Li                  
                                             
                                             
                                             
                                             
                                             

Positions:
   0 Li     0.000000    2.286836   10.000000    ( 0.0000,  0.0000,  0.0000)
   1 Li     3.234074    2.286836   10.000000    ( 0.0000,  0.0000,  0.0000)
   2 Li     6.468148    2.286836   10.000000    ( 0.0000,  0.0000,  0.0000)
   3 Li     1.617037    4.573671   10.000000    ( 0.0000,  0.0000,  0.0000)
   4 Li     4.851111    4.573671   10.000000    ( 0.0000,  0.0000,  0.0000)
   5 Li     8.085185    4.573671   10.000000    ( 0.0000,  0.0000,  0.0000)
   6 Li     3.234074    6.860507   10.000000    ( 0.0000,  0.0000,  0.0000)
   7 Li     6.468148    6.860507   10.000000    ( 0.0000,  0.0000,  0.0000)
   8 Li     9.702222    6.860507   10.000000    ( 0.0000,  0.0000,  0.0000)
   9 Li     0.000000    0.000000   12.286836    ( 0.0000,  0.0000,  0.0000)
  10 Li     3.234074    0.000000   12.286836    ( 0.0000,  0.0000,  0.0000)
  11 Li     6.468148    0.000000   12.286836    ( 0.0000,  0.0000,  0.0000)
  12 Li     1.617037    2.286836   12.286836    ( 0.0000,  0.0000,  0.0000)
  13 Li     4.851111    2.286836   12.286836    ( 0.0000,  0.0000,  0.0000)
  14 Li     8.085185    2.286836   12.286836    ( 0.0000,  0.0000,  0.0000)
  15 Li     3.234074    4.573671   12.286836    ( 0.0000,  0.0000,  0.0000)
  16 Li     6.468148    4.573671   12.286836    ( 0.0000,  0.0000,  0.0000)
  17 Li     9.702222    4.573671   12.286836    ( 0.0000,  0.0000,  0.0000)
  18 Li     0.000000    2.286836   14.585039    ( 0.0000,  0.0000,  0.0000)
  19 Li     3.234074    2.286836   14.585039    ( 0.0000,  0.0000,  0.0000)
  20 Li     6.468148    2.286836   14.585039    ( 0.0000,  0.0000,  0.0000)
  21 Li     1.617037    4.573671   14.585039    ( 0.0000,  0.0000,  0.0000)
  22 Li     4.851111    4.573671   14.585039    ( 0.0000,  0.0000,  0.0000)
  23 Li     8.085185    4.573671   14.585039    ( 0.0000,  0.0000,  0.0000)
  24 Li     3.234074    6.860507   14.585039    ( 0.0000,  0.0000,  0.0000)
  25 Li     6.468148    6.860507   14.585039    ( 0.0000,  0.0000,  0.0000)
  26 Li     9.702222    6.860507   14.585039    ( 0.0000,  0.0000,  0.0000)
  27 Li    -0.000000   -0.000000   16.881659    ( 0.0000,  0.0000,  0.0000)
  28 Li     3.234074   -0.000000   16.881659    ( 0.0000,  0.0000,  0.0000)
  29 Li     6.468148   -0.000000   16.881659    ( 0.0000,  0.0000,  0.0000)
  30 Li     1.617037    2.286836   16.881659    ( 0.0000,  0.0000,  0.0000)
  31 Li     4.851111    2.286836   16.881659    ( 0.0000,  0.0000,  0.0000)
  32 Li     8.085185    2.286836   16.881659    ( 0.0000,  0.0000,  0.0000)
  33 Li     3.234074    4.573671   16.881659    ( 0.0000,  0.0000,  0.0000)
  34 Li     6.468148    4.573671   16.881659    ( 0.0000,  0.0000,  0.0000)
  35 Li     9.702222    4.573671   16.881659    ( 0.0000,  0.0000,  0.0000)

Unit cell:
           periodic     x           y           z      points  spacing
  1. axis:    yes    9.702222    0.000000    0.000000    48     0.1650
  2. axis:    yes    4.851111    6.860507    0.000000    48     0.1429
  3. axis:    no     0.000000    0.000000   26.860507   168     0.1599

  Lengths:   9.702222   8.402371  26.860507
  Angles:   90.000000  90.000000  54.735610

Effective grid spacing dv^(1/3) = 0.1665

     iter     time        total  log10-change:
                         energy  eigst   dens
iter:   1 16:36:27  -195.496984  -0.05
iter:   2 16:37:56  -195.457938  -0.09  -1.13
iter:   3 16:39:23  -195.168914  -1.22  -1.11
iter:   4 16:40:56  -195.170066  -0.56  -1.65
Writing to output.gpw (mode='')

iter:   5 16:42:26  -195.160341c -1.37  -1.81
iter:   6 16:43:59  -195.159088c -2.01  -2.20
iter:   7 16:45:28  -195.159043c -2.04  -2.39
iter:   8 16:47:12  -195.158662c -2.21  -2.35
iter:   9 16:48:41  -195.158892c -2.48  -2.87
Writing to output.gpw (mode='')

iter:  10 16:50:20  -195.158972c -2.75  -3.09
iter:  11 16:51:53  -195.159038c -3.00  -3.10
iter:  12 16:53:19  -195.159004c -3.31  -3.16
iter:  13 16:54:46  -195.159041c -3.53  -3.38
iter:  14 16:56:13  -195.159077c -3.69  -3.27
Writing to output.gpw (mode='')

iter:  15 16:57:43  -195.159056c -3.76  -3.15
iter:  16 16:59:07  -195.159084c -3.98  -3.20
iter:  17 17:00:35  -195.159058c -4.16  -3.13
iter:  18 17:01:57  -195.159002c -4.20  -3.18
iter:  19 17:03:21  -195.159012c -4.69  -3.45
Writing to output.gpw (mode='')

iter:  20 17:04:49  -195.158929c -3.84  -3.35
iter:  21 17:06:15  -195.159098c -3.63  -3.28
iter:  22 17:07:36  -195.158955c -4.52  -3.20
iter:  23 17:09:03  -195.158970c -5.36  -3.56
iter:  24 17:10:29  -195.158934c -3.98  -3.65
Writing to output.gpw (mode='')

iter:  25 17:11:58  -195.158937c -4.74  -3.35
iter:  26 17:13:22  -195.158971c -4.87  -3.34
iter:  27 17:14:50  -195.158976c -4.94  -3.60
iter:  28 17:16:25  -195.158968c -5.40  -3.65
iter:  29 17:17:48  -195.158991c -4.43  -3.79
Writing to output.gpw (mode='')

iter:  30 17:19:16  -195.158972c -5.71  -3.72
iter:  31 17:20:38  -195.158965c -5.82  -3.95
iter:  32 17:22:07  -195.158960c -5.68  -4.02c
iter:  33 17:23:38  -195.158973c -5.64  -4.11c
iter:  34 17:25:13  -195.158965c -6.29  -3.98
Writing to output.gpw (mode='')

iter:  35 17:26:39  -195.158956c -5.41  -4.20c
iter:  36 17:28:13  -195.158961c -6.69  -4.26c
iter:  37 17:29:45  -195.158962c -6.62  -4.51c
iter:  38 17:31:09  -195.158959c -6.59  -4.61c
iter:  39 17:32:45  -195.158962c -6.66  -4.52c
Writing to output.gpw (mode='')

iter:  40 17:34:12  -195.158962c -7.15  -4.90c
iter:  41 17:35:46  -195.158961c -6.73  -4.96c
iter:  42 17:37:12  -195.158962c -7.11  -5.03c
iter:  43 17:38:41  -195.158962c -7.06  -5.10c
iter:  44 17:40:13  -195.158962c -7.33  -5.26c
Writing to output.gpw (mode='')

iter:  45 17:41:36  -195.158962c -6.90  -5.33c
iter:  46 17:43:00  -195.158962c -7.43c -5.28c

Converged after 46 iterations.

Dipole moment: (-5.410221, -4.119669, -0.002322) |e|*Ang

Energy contributions relative to reference atoms: (reference = -7300.361529)

Kinetic:       +106.685607
Potential:      -83.130523
External:        +0.000000
XC:            -218.344105
Entropy (-ST):   -0.190180
Local:           -0.274852
--------------------------
Free energy:   -195.254052
Extrapolated:  -195.158962

Dipole-layer corrected work functions: 3.603973, 3.610285 eV

Showing all kpts
 Kpt  Band  Eigenvalues  Occupancy
  0    16     -3.67660    1.60101
  0    17     -3.48850    0.17058
  0    18     -3.47754    0.13933
  0    19     -3.31169    0.00542

  1    16     -3.98574    1.99897
  1    17     -3.69264    1.69373
  1    18     -3.68007    1.62268
  1    19     -3.58394    0.77221


Fermi level: -3.60713

No gap
Writing to output.gpw (mode='')


Forces in eV/Ang:
  0 Li    0.00000    0.00000   -0.08088
  1 Li    0.00000   -0.00000   -0.08088
  2 Li   -0.00000   -0.00000   -0.08088
  3 Li   -0.00000    0.00000   -0.08088
  4 Li    0.00000   -0.00000   -0.08088
  5 Li    0.00000    0.00000   -0.08088
  6 Li   -0.00000    0.00000   -0.08088
  7 Li    0.00000    0.00000   -0.08088
  8 Li    0.00000    0.00000   -0.08088
  9 Li    0.00000    0.00000   -0.03151
 10 Li    0.00000    0.00000   -0.03151
 11 Li   -0.00000    0.00000   -0.03151
 12 Li    0.00000   -0.00000   -0.03151
 13 Li    0.00000    0.00000   -0.03151
 14 Li   -0.00000   -0.00000   -0.03151
 15 Li   -0.00000    0.00000   -0.03151
 16 Li    0.00000    0.00000   -0.03151
 17 Li    0.00000   -0.00000   -0.03151
 18 Li    0.00000    0.00000    0.04032
 19 Li    0.00000   -0.00000    0.04032
 20 Li   -0.00000   -0.00000    0.04032
 21 Li   -0.00000    0.00000    0.04032
 22 Li    0.00000   -0.00000    0.04032
 23 Li    0.00000    0.00000    0.04032
 24 Li   -0.00000    0.00000    0.04032
 25 Li    0.00000    0.00000    0.04032
 26 Li    0.00000    0.00000    0.04032
 27 Li    0.00000    0.00000    0.07201
 28 Li   -0.00000    0.00000    0.07201
 29 Li    0.00000    0.00000    0.07201
 30 Li   -0.00000   -0.00000    0.07201
 31 Li    0.00000    0.00000    0.07201
 32 Li    0.00000   -0.00000    0.07201
 33 Li    0.00000    0.00000    0.07201
 34 Li   -0.00000    0.00000    0.07201
 35 Li    0.00000   -0.00000    0.07201

System changes: positions 

Initializing position-dependent things.

Density initialized from wave functions
                                             
                                             
                                             
                                             
                                             
                  Li      Li      Li         
                    Li      Li      Li       
             Li      Li      Li              
       Li     LLi     LLi     Li             
         Li      Li      Li                  
                                             
                  Li      Li      Li         
             Li     LLi     LLi     Li       
              Li      Li      Li             
       Li      Li      Li                    
         Li      Li      Li                  
                                             
                                             
                                             
                                             
                                             

Positions:
   0 Li     0.000000    2.286836   10.000000    ( 0.0000,  0.0000,  0.0000)
   1 Li     3.234074    2.286836   10.000000    ( 0.0000,  0.0000,  0.0000)
   2 Li     6.468148    2.286836   10.000000    ( 0.0000,  0.0000,  0.0000)
   3 Li     1.617037    4.573671   10.000000    ( 0.0000,  0.0000,  0.0000)
   4 Li     4.851111    4.573671   10.000000    ( 0.0000,  0.0000,  0.0000)
   5 Li     8.085185    4.573671   10.000000    ( 0.0000,  0.0000,  0.0000)
   6 Li     3.234074    6.860507   10.000000    ( 0.0000,  0.0000,  0.0000)
   7 Li     6.468148    6.860507   10.000000    ( 0.0000,  0.0000,  0.0000)
   8 Li     9.702222    6.860507   10.000000    ( 0.0000,  0.0000,  0.0000)
   9 Li     0.000000    0.000000   12.286836    ( 0.0000,  0.0000,  0.0000)
  10 Li     3.234074    0.000000   12.286836    ( 0.0000,  0.0000,  0.0000)
  11 Li     6.468148    0.000000   12.286836    ( 0.0000,  0.0000,  0.0000)
  12 Li     1.617037    2.286836   12.286836    ( 0.0000,  0.0000,  0.0000)
  13 Li     4.851111    2.286836   12.286836    ( 0.0000,  0.0000,  0.0000)
  14 Li     8.085185    2.286836   12.286836    ( 0.0000,  0.0000,  0.0000)
  15 Li     3.234074    4.573671   12.286836    ( 0.0000,  0.0000,  0.0000)
  16 Li     6.468148    4.573671   12.286836    ( 0.0000,  0.0000,  0.0000)
  17 Li     9.702222    4.573671   12.286836    ( 0.0000,  0.0000,  0.0000)
  18 Li     0.000000    2.286836   14.590434    ( 0.0000,  0.0000,  0.0000)
  19 Li     3.234074    2.286836   14.590434    ( 0.0000,  0.0000,  0.0000)
  20 Li     6.468148    2.286836   14.590434    ( 0.0000,  0.0000,  0.0000)
  21 Li     1.617037    4.573671   14.590434    ( 0.0000,  0.0000,  0.0000)
  22 Li     4.851111    4.573671   14.590434    ( 0.0000,  0.0000,  0.0000)
  23 Li     8.085185    4.573671   14.590434    ( 0.0000,  0.0000,  0.0000)
  24 Li     3.234074    6.860507   14.590434    ( 0.0000,  0.0000,  0.0000)
  25 Li     6.468148    6.860507   14.590434    ( 0.0000,  0.0000,  0.0000)
  26 Li     9.702222    6.860507   14.590434    ( 0.0000,  0.0000,  0.0000)
  27 Li    -0.000000   -0.000000   16.891659    ( 0.0000,  0.0000,  0.0000)
  28 Li     3.234074   -0.000000   16.891659    ( 0.0000,  0.0000,  0.0000)
  29 Li     6.468148   -0.000000   16.891659    ( 0.0000,  0.0000,  0.0000)
  30 Li     1.617037    2.286836   16.891659    ( 0.0000,  0.0000,  0.0000)
  31 Li     4.851111    2.286836   16.891659    ( 0.0000,  0.0000,  0.0000)
  32 Li     8.085185    2.286836   16.891659    ( 0.0000,  0.0000,  0.0000)
  33 Li     3.234074    4.573671   16.891659    ( 0.0000,  0.0000,  0.0000)
  34 Li     6.468148    4.573671   16.891659    ( 0.0000,  0.0000,  0.0000)
  35 Li     9.702222    4.573671   16.891659    ( 0.0000,  0.0000,  0.0000)

Unit cell:
           periodic     x           y           z      points  spacing
  1. axis:    yes    9.702222    0.000000    0.000000    48     0.1650
  2. axis:    yes    4.851111    6.860507    0.000000    48     0.1429
  3. axis:    no     0.000000    0.000000   26.860507   168     0.1599

  Lengths:   9.702222   8.402371  26.860507
  Angles:   90.000000  90.000000  54.735610

Effective grid spacing dv^(1/3) = 0.1665

     iter     time        total  log10-change:
                         energy  eigst   dens
iter:   1 17:44:34  -195.505415  -0.04
iter:   2 17:46:02  -195.468353  -0.08  -1.13
iter:   3 17:47:34  -195.177306  -1.22  -1.11
iter:   4 17:49:05  -195.178666  -0.55  -1.65
Writing to output.gpw (mode='')

iter:   5 17:50:40  -195.168583c -1.36  -1.80
iter:   6 17:52:11  -195.167316c -2.00  -2.20
iter:   7 17:53:48  -195.167324c -2.03  -2.38
iter:   8 17:55:16  -195.166874c -2.21  -2.34
iter:   9 17:56:41  -195.167103c -2.47  -2.86
Writing to output.gpw (mode='')

iter:  10 17:58:12  -195.167187c -2.75  -3.09
iter:  11 17:59:44  -195.167252c -2.98  -3.10
iter:  12 18:01:10  -195.167228c -3.31  -3.16
iter:  13 18:02:43  -195.167263c -3.52  -3.36
iter:  14 18:04:15  -195.167294c -3.69  -3.25
Writing to output.gpw (mode='')

iter:  15 18:05:44  -195.167295c -3.77  -3.15
iter:  16 18:07:18  -195.167350c -3.77  -3.14
iter:  17 18:08:49  -195.167304c -3.98  -3.02
iter:  18 18:10:23  -195.167339c -3.99  -3.09
iter:  19 18:11:47  -195.167350c -4.30  -3.02
Writing to output.gpw (mode='')

iter:  20 18:13:13  -195.167342c -4.37  -2.99
iter:  21 18:14:41  -195.167280c -4.20  -2.98
iter:  22 18:16:16  -195.167235c -4.46  -3.08
iter:  23 18:17:45  -195.167206c -4.42  -3.21
iter:  24 18:19:06  -195.167203c -4.68  -3.42
Writing to output.gpw (mode='')

iter:  25 18:20:37  -195.167192c -4.59  -3.48
iter:  26 18:22:04  -195.167191c -4.84  -3.49
iter:  27 18:23:25  -195.167206c -4.98  -3.51
iter:  28 18:24:51  -195.167198c -5.29  -3.55
iter:  29 18:26:20  -195.167177c -4.85  -3.66
Writing to output.gpw (mode='')

iter:  30 18:27:57  -195.167205c -4.83  -3.88
iter:  31 18:29:24  -195.167190c -5.73  -3.70
iter:  32 18:30:48  -195.167184c -5.34  -4.08c
iter:  33 18:32:16  -195.167185c -6.26  -4.27c
iter:  34 18:33:45  -195.167184c -6.21  -4.27c
Writing to output.gpw (mode='')

iter:  35 18:35:10  -195.167178c -5.46  -4.19c
iter:  36 18:36:43  -195.167184c -6.29  -4.17c
iter:  37 18:38:17  -195.167184c -6.20  -4.52c
iter:  38 18:39:49  -195.167183c -6.59  -4.73c
iter:  39 18:41:22  -195.167183c -6.81  -4.85c
Writing to output.gpw (mode='')

iter:  40 18:42:49  -195.167184c -7.06  -4.88c
iter:  41 18:44:19  -195.167183c -7.27  -5.13c
iter:  42 18:45:54  -195.167183c -7.26  -5.19c
iter:  43 18:47:24  -195.167183c -7.31  -5.28c
iter:  44 18:48:52  -195.167183c -7.41c -5.30c

Converged after 44 iterations.

Dipole moment: (-5.410169, -4.119644, -0.003485) |e|*Ang

Energy contributions relative to reference atoms: (reference = -7300.361529)

Kinetic:       +106.386993
Potential:      -82.936626
External:        +0.000000
XC:            -218.248356
Entropy (-ST):   -0.190193
Local:           -0.274097
--------------------------
Free energy:   -195.262280
Extrapolated:  -195.167183

Dipole-layer corrected work functions: 3.602798, 3.612272 eV

Showing all kpts
 Kpt  Band  Eigenvalues  Occupancy
  0    16     -3.67927    1.61524
  0    17     -3.48785    0.16732
  0    18     -3.47522    0.13242
  0    19     -3.30780    0.00497

  1    16     -3.98721    1.99899
  1    17     -3.69275    1.69217
  1    18     -3.67759    1.60469
  1    19     -3.58567    0.78481


Fermi level: -3.60753

No gap
Writing to output.gpw (mode='')


Forces in eV/Ang:
  0 Li    0.00000   -0.00000   -0.08096
  1 Li   -0.00000    0.00000   -0.08096
  2 Li    0.00000    0.00000   -0.08096
  3 Li    0.00000   -0.00000   -0.08096
  4 Li    0.00000    0.00000   -0.08096
  5 Li   -0.00000   -0.00000   -0.08096
  6 Li    0.00000    0.00000   -0.08096
  7 Li   -0.00000    0.00000   -0.08096
  8 Li    0.00000    0.00000   -0.08096
  9 Li    0.00000    0.00000   -0.02606
 10 Li    0.00000    0.00000   -0.02606
 11 Li   -0.00000    0.00000   -0.02606
 12 Li    0.00000    0.00000   -0.02606
 13 Li    0.00000   -0.00000   -0.02606
 14 Li   -0.00000    0.00000   -0.02606
 15 Li   -0.00000   -0.00000   -0.02606
 16 Li    0.00000   -0.00000   -0.02606
 17 Li    0.00000    0.00000   -0.02606
 18 Li    0.00000    0.00000    0.03899
 19 Li   -0.00000   -0.00000    0.03899
 20 Li    0.00000   -0.00000    0.03899
 21 Li    0.00000    0.00000    0.03899
 22 Li    0.00000   -0.00000    0.03899
 23 Li   -0.00000    0.00000    0.03899
 24 Li    0.00000    0.00000    0.03899
 25 Li   -0.00000    0.00000    0.03899
 26 Li    0.00000    0.00000    0.03899
 27 Li    0.00000    0.00000    0.06799
 28 Li    0.00000    0.00000    0.06799
 29 Li   -0.00000    0.00000    0.06799
 30 Li    0.00000    0.00000    0.06799
 31 Li    0.00000   -0.00000    0.06799
 32 Li   -0.00000    0.00000    0.06799
 33 Li   -0.00000   -0.00000    0.06799
 34 Li    0.00000   -0.00000    0.06799
 35 Li    0.00000    0.00000    0.06799

System changes: positions 

Initializing position-dependent things.

Density initialized from wave functions
                                             
                                             
                                             
                                             
                                             
                  Li      Li      Li         
                    Li      Li      Li       
             Li      Li      Li              
       Li     LLi     LLi     Li             
         Li      Li      Li                  
                                             
                  Li      Li      Li         
             Li     LLi     LLi     Li       
              Li      Li      Li             
       Li      Li      Li                    
         Li      Li      Li                  
                                             
                                             
                                             
                                             
                                             

Positions:
   0 Li     0.000000    2.286836   10.000000    ( 0.0000,  0.0000,  0.0000)
   1 Li     3.234074    2.286836   10.000000    ( 0.0000,  0.0000,  0.0000)
   2 Li     6.468148    2.286836   10.000000    ( 0.0000,  0.0000,  0.0000)
   3 Li     1.617037    4.573671   10.000000    ( 0.0000,  0.0000,  0.0000)
   4 Li     4.851111    4.573671   10.000000    ( 0.0000,  0.0000,  0.0000)
   5 Li     8.085185    4.573671   10.000000    ( 0.0000,  0.0000,  0.0000)
   6 Li     3.234074    6.860507   10.000000    ( 0.0000,  0.0000,  0.0000)
   7 Li     6.468148    6.860507   10.000000    ( 0.0000,  0.0000,  0.0000)
   8 Li     9.702222    6.860507   10.000000    ( 0.0000,  0.0000,  0.0000)
   9 Li     0.000000    0.000000   12.286836    ( 0.0000,  0.0000,  0.0000)
  10 Li     3.234074    0.000000   12.286836    ( 0.0000,  0.0000,  0.0000)
  11 Li     6.468148    0.000000   12.286836    ( 0.0000,  0.0000,  0.0000)
  12 Li     1.617037    2.286836   12.286836    ( 0.0000,  0.0000,  0.0000)
  13 Li     4.851111    2.286836   12.286836    ( 0.0000,  0.0000,  0.0000)
  14 Li     8.085185    2.286836   12.286836    ( 0.0000,  0.0000,  0.0000)
  15 Li     3.234074    4.573671   12.286836    ( 0.0000,  0.0000,  0.0000)
  16 Li     6.468148    4.573671   12.286836    ( 0.0000,  0.0000,  0.0000)
  17 Li     9.702222    4.573671   12.286836    ( 0.0000,  0.0000,  0.0000)
  18 Li     0.000000    2.286836   14.595843    ( 0.0000,  0.0000,  0.0000)
  19 Li     3.234074    2.286836   14.595843    ( 0.0000,  0.0000,  0.0000)
  20 Li     6.468148    2.286836   14.595843    ( 0.0000,  0.0000,  0.0000)
  21 Li     1.617037    4.573671   14.595843    ( 0.0000,  0.0000,  0.0000)
  22 Li     4.851111    4.573671   14.595843    ( 0.0000,  0.0000,  0.0000)
  23 Li     8.085185    4.573671   14.595843    ( 0.0000,  0.0000,  0.0000)
  24 Li     3.234074    6.860507   14.595843    ( 0.0000,  0.0000,  0.0000)
  25 Li     6.468148    6.860507   14.595843    ( 0.0000,  0.0000,  0.0000)
  26 Li     9.702222    6.860507   14.595843    ( 0.0000,  0.0000,  0.0000)
  27 Li    -0.000000   -0.000000   16.901659    ( 0.0000,  0.0000,  0.0000)
  28 Li     3.234074   -0.000000   16.901659    ( 0.0000,  0.0000,  0.0000)
  29 Li     6.468148    0.000000   16.901659    ( 0.0000,  0.0000,  0.0000)
  30 Li     1.617037    2.286836   16.901659    ( 0.0000,  0.0000,  0.0000)
  31 Li     4.851111    2.286836   16.901659    ( 0.0000,  0.0000,  0.0000)
  32 Li     8.085185    2.286836   16.901659    ( 0.0000,  0.0000,  0.0000)
  33 Li     3.234074    4.573671   16.901659    ( 0.0000,  0.0000,  0.0000)
  34 Li     6.468148    4.573671   16.901659    ( 0.0000,  0.0000,  0.0000)
  35 Li     9.702222    4.573671   16.901659    ( 0.0000,  0.0000,  0.0000)

Unit cell:
           periodic     x           y           z      points  spacing
  1. axis:    yes    9.702222    0.000000    0.000000    48     0.1650
  2. axis:    yes    4.851111    6.860507    0.000000    48     0.1429
  3. axis:    no     0.000000    0.000000   26.860507   168     0.1599

  Lengths:   9.702222   8.402371  26.860507
  Angles:   90.000000  90.000000  54.735610

Effective grid spacing dv^(1/3) = 0.1665

     iter     time        total  log10-change:
                         energy  eigst   dens
iter:   1 18:50:27  -195.513611  -0.04
iter:   2 18:51:55  -195.478609  -0.08  -1.13
iter:   3 18:53:29  -195.185259  -1.22  -1.11
iter:   4 18:54:53  -195.186903  -0.55  -1.65
Writing to output.gpw (mode='')

iter:   5 18:56:23  -195.176392c -1.36  -1.79
iter:   6 18:57:54  -195.175118c -1.99  -2.19
iter:   7 18:59:18  -195.175174c -2.03  -2.38
iter:   8 19:00:41  -195.174646c -2.21  -2.33
iter:   9 19:02:16  -195.174872c -2.47  -2.85
Writing to output.gpw (mode='')

iter:  10 19:03:49  -195.174960c -2.74  -3.09
iter:  11 19:05:33  -195.175032c -2.96  -3.11
iter:  12 19:07:07  -195.175013c -3.29  -3.14
iter:  13 19:08:33  -195.175047c -3.52  -3.33
iter:  14 19:10:00  -195.175077c -3.68  -3.24
Writing to output.gpw (mode='')

iter:  15 19:11:33  -195.175082c -3.83  -3.14
iter:  16 19:12:54  -195.175109c -3.92  -3.12
iter:  17 19:14:20  -195.175114c -3.95  -3.05
iter:  18 19:15:48  -195.175132c -4.04  -3.03
iter:  19 19:17:19  -195.175142c -4.30  -2.97
Writing to output.gpw (mode='')

iter:  20 19:18:53  -195.175128c -4.48  -2.95
iter:  21 19:20:28  -195.175133c -4.76  -2.96
iter:  22 19:21:59  -195.175011c -4.44  -2.95
iter:  23 19:23:25  -195.175006c -4.88  -3.28
iter:  24 19:24:48  -195.174984c -4.62  -3.31
Writing to output.gpw (mode='')

iter:  25 19:26:13  -195.174961c -4.27  -3.39
iter:  26 19:27:39  -195.174976c -5.10  -3.50
iter:  27 19:29:07  -195.174982c -5.21  -3.48
iter:  28 19:30:35  -195.174974c -5.14  -3.60
iter:  29 19:32:02  -195.174962c -5.01  -3.76
Writing to output.gpw (mode='')

iter:  30 19:33:33  -195.174953c -4.79  -3.85
iter:  31 19:34:57  -195.174963c -5.97  -3.71
iter:  32 19:36:20  -195.174984c -5.11  -3.86
iter:  33 19:37:44  -195.175011c -4.68  -3.81
iter:  34 19:39:16  -195.174988c -5.79  -3.49
Writing to output.gpw (mode='')

iter:  35 19:40:48  -195.174961c -5.11  -3.65
iter:  36 19:42:21  -195.174961c -5.67  -4.08c
iter:  37 19:43:48  -195.174962c -5.77  -4.08c
iter:  38 19:45:14  -195.174972c -6.30  -4.13c
iter:  39 19:46:41  -195.174969c -6.08  -4.12c
Writing to output.gpw (mode='')

iter:  40 19:48:09  -195.174971c -6.58  -4.24c
iter:  41 19:49:33  -195.174966c -6.27  -4.22c
iter:  42 19:51:05  -195.174965c -6.47  -4.29c
iter:  43 19:52:31  -195.174969c -6.61  -4.32c
iter:  44 19:53:57  -195.174964c -6.53  -4.53c
Writing to output.gpw (mode='')

iter:  45 19:55:28  -195.174965c -6.73  -4.94c
iter:  46 19:56:53  -195.174964c -6.80  -4.96c
iter:  47 19:58:18  -195.174965c -7.02  -4.93c
iter:  48 19:59:41  -195.174965c -6.47  -4.97c
iter:  49 20:01:07  -195.174964c -6.59  -4.99c
Writing to output.gpw (mode='')

iter:  50 20:02:34  -195.174964c -6.61  -4.97c
iter:  51 20:03:55  -195.174964c -5.98  -5.01c
iter:  52 20:05:20  -195.174961c -5.49  -5.11c
iter:  53 20:06:49  -195.174956c -4.99  -5.45c
iter:  54 20:08:10  -195.174953c -5.24  -5.39c
Writing to output.gpw (mode='')

iter:  55 20:09:30  -195.174948c -4.90  -5.73c
iter:  56 20:10:58  -195.174940c -4.58  -5.81c
iter:  57 20:11:30  -195.174933c -4.88  -5.59c
iter:  58 20:12:56  -195.174922c -4.62  -5.54c
iter:  59 20:14:17  -195.174911c -4.64  -5.45c
Writing to output.gpw (mode='')

iter:  60 20:14:33  -195.174898c -4.61  -5.32c
iter:  61 20:14:49  -195.174885c -4.67  -5.21c
iter:  62 20:15:04  -195.174867c -4.45  -5.10c
iter:  63 20:15:20  -195.174846c -4.31  -4.99c
iter:  64 20:15:35  -195.174822c -4.36  -4.88c
Writing to output.gpw (mode='')

iter:  65 20:15:51  -195.174801c -4.41  -4.76c
iter:  66 20:16:06  -195.174775c -4.30  -4.68c
iter:  67 20:16:22  -195.174749c -4.31  -4.59c
iter:  68 20:16:37  -195.174714c -4.19  -4.52c
iter:  69 20:16:52  -195.174687c -4.30  -4.45c
Writing to output.gpw (mode='')

iter:  70 20:17:09  -195.174660c -4.34  -4.39c
iter:  71 20:17:24  -195.174633c -4.32  -4.32c
iter:  72 20:17:40  -195.174606c -4.31  -4.28c
iter:  73 20:17:55  -195.174572c -4.01  -4.24c
iter:  74 20:18:10  -195.174542c -4.19  -4.19c
Writing to output.gpw (mode='')

iter:  75 20:18:26  -195.174516c -4.19  -4.15c
iter:  76 20:18:42  -195.174490c -4.26  -4.08c
iter:  77 20:18:57  -195.174466c -4.29  -4.07c
iter:  78 20:19:12  -195.174440c -4.23  -4.04c
iter:  79 20:19:28  -195.174417c -4.13  -3.99
Writing to output.gpw (mode='')

iter:  80 20:19:44  -195.174383c -4.18  -3.93
iter:  81 20:19:59  -195.174365c -4.38  -4.11c
iter:  82 20:20:14  -195.174347c -4.38  -4.01c
iter:  83 20:20:30  -195.174325c -4.23  -3.95
iter:  84 20:20:45  -195.174304c -4.36  -3.99
Writing to output.gpw (mode='')

iter:  85 20:21:01  -195.174291c -4.43  -4.18c
iter:  86 20:21:17  -195.174266c -4.31  -4.09c
iter:  87 20:21:32  -195.174255c -4.52  -4.24c
iter:  88 20:21:47  -195.174239c -4.57  -4.16c
iter:  89 20:22:03  -195.174226c -4.59  -4.25c
Writing to output.gpw (mode='')

iter:  90 20:22:19  -195.174215c -4.59  -4.32c
iter:  91 20:22:34  -195.174204c -4.65  -4.24c
iter:  92 20:23:51  -195.174194c -4.63  -4.37c
iter:  93 20:25:22  -195.174185c -4.53  -4.42c
iter:  94 20:26:49  -195.174176c -4.53  -4.50c
Writing to output.gpw (mode='')

iter:  95 20:28:15  -195.174166c -4.78  -4.56c
iter:  96 20:29:43  -195.174159c -4.75  -4.63c
iter:  97 20:31:04  -195.174152c -4.87  -4.67c
iter:  98 20:32:31  -195.174147c -4.89  -4.81c
iter:  99 20:33:58  -195.174141c -4.97  -4.88c
Writing to output.gpw (mode='')

iter: 100 20:35:20  -195.174136c -5.02  -4.89c
iter: 101 20:36:46  -195.174132c -5.02  -4.94c
iter: 102 20:38:09  -195.174128c -5.03  -4.99c
iter: 103 20:39:34  -195.174124c -5.00  -5.06c
iter: 104 20:41:00  -195.174121c -4.98  -5.16c
Writing to output.gpw (mode='')

iter: 105 20:42:41  -195.174118c -5.10  -5.20c
iter: 106 20:44:09  -195.174114c -5.26  -5.21c
iter: 107 20:45:39  -195.174111c -5.22  -5.24c
iter: 108 20:47:04  -195.174110c -5.34  -5.19c
iter: 109 20:48:39  -195.174108c -5.37  -5.46c
Writing to output.gpw (mode='')

iter: 110 20:50:01  -195.174106c -5.38  -5.57c
iter: 111 20:51:26  -195.174104c -5.42  -5.78c
iter: 112 20:52:56  -195.174102c -5.38  -5.80c
iter: 113 20:54:30  -195.174101c -5.42  -5.84c
iter: 114 20:55:53  -195.174099c -5.41  -5.88c
Writing to output.gpw (mode='')

iter: 115 20:57:19  -195.174098c -5.47  -5.86c
iter: 116 20:58:44  -195.174097c -5.46  -5.96c
iter: 117 21:00:15  -195.174095c -5.57  -5.99c
iter: 118 21:01:02  -195.174095c -5.71  -6.07c
iter: 119 21:02:27  -195.174094c -5.77  -6.09c
Writing to output.gpw (mode='')

iter: 120 21:03:54  -195.174093c -5.77  -6.11c
iter: 121 21:05:22  -195.174092c -5.85  -6.05c
iter: 122 21:06:49  -195.174092c -5.88  -5.94c
iter: 123 21:08:15  -195.174091c -5.89  -5.89c
iter: 124 21:09:49  -195.174091c -5.85  -5.83c
Writing to output.gpw (mode='')

iter: 125 21:11:20  -195.174090c -5.77  -5.85c
iter: 126 21:12:50  -195.174090c -6.09  -5.84c
iter: 127 21:14:23  -195.174089c -6.01  -5.67c
iter: 128 21:15:45  -195.174089c -6.10  -5.71c
iter: 129 21:17:14  -195.174089c -6.16  -5.63c
Writing to output.gpw (mode='')

iter: 130 21:18:55  -195.174088c -6.20  -5.70c
iter: 131 21:20:20  -195.174088c -6.13  -5.77c
iter: 132 21:21:51  -195.174088c -6.37  -6.05c
iter: 133 21:23:14  -195.174088c -6.26  -5.95c
iter: 134 21:24:41  -195.174087c -6.37  -6.12c
Writing to output.gpw (mode='')

iter: 135 21:26:04  -195.174087c -6.35  -6.22c
iter: 136 21:27:26  -195.174087c -6.52  -6.29c
iter: 137 21:28:46  -195.174087c -6.50  -6.12c
iter: 138 21:30:15  -195.174087c -6.61  -6.44c
iter: 139 21:31:34  -195.174087c -6.63  -6.52c
Writing to output.gpw (mode='')

iter: 140 21:33:01  -195.174087c -6.63  -6.53c
iter: 141 21:34:29  -195.174086c -6.70  -6.58c
iter: 142 21:35:51  -195.174086c -6.59  -6.85c
iter: 143 21:37:21  -195.174086c -6.53  -6.84c
iter: 144 21:38:42  -195.174086c -6.82  -6.74c
Writing to output.gpw (mode='')

iter: 145 21:40:08  -195.174086c -6.92  -6.55c
iter: 146 21:41:34  -195.174086c -6.86  -6.48c
iter: 147 21:43:01  -195.174086c -6.94  -6.38c
iter: 148 21:44:32  -195.174086c -6.93  -6.31c
iter: 149 21:46:06  -195.174086c -6.88  -6.33c
Writing to output.gpw (mode='')

iter: 150 21:47:42  -195.174086c -7.07  -6.30c
iter: 151 21:49:15  -195.174086c -7.12  -6.31c
iter: 152 21:50:42  -195.174086c -7.17  -6.11c
iter: 153 21:52:06  -195.174086c -7.22  -6.12c
iter: 154 21:53:33  -195.174086c -7.23  -6.08c
Writing to output.gpw (mode='')

iter: 155 21:55:01  -195.174086c -7.22  -6.21c
iter: 156 21:56:31  -195.174086c -7.11  -6.49c
iter: 157 21:58:04  -195.174086c -7.32  -6.61c
iter: 158 21:59:32  -195.174086c -7.17  -6.29c
iter: 159 22:00:38  -195.174086c -7.18  -6.55c
Writing to output.gpw (mode='')

iter: 160 22:00:54  -195.174086c -7.38  -6.63c
iter: 161 22:01:09  -195.174086c -7.44c -6.60c

Converged after 161 iterations.

Dipole moment: (-5.410080, -4.119579, -0.004625) |e|*Ang

Energy contributions relative to reference atoms: (reference = -7300.361529)

Kinetic:       +106.084716
Potential:      -82.739485
External:        +0.000000
XC:            -218.149572
Entropy (-ST):   -0.192843
Local:           -0.273323
--------------------------
Free energy:   -195.270507
Extrapolated:  -195.174086

Dipole-layer corrected work functions: 3.603716, 3.616288 eV

Showing all kpts
 Kpt  Band  Eigenvalues  Occupancy
  0    16     -3.68326    1.62467
  0    17     -3.48900    0.16331
  0    18     -3.47481    0.12550
  0    19     -3.37210    0.01702

  1    16     -3.99037    1.99901
  1    17     -3.69462    1.68906
  1    18     -3.67702    1.58508
  1    19     -3.58910    0.79393


Fermi level: -3.61000

No gap
Writing to output.gpw (mode='')


Forces in eV/Ang:
  0 Li    0.00000    0.00000   -0.08131
  1 Li    0.00000    0.00000   -0.08131
  2 Li   -0.00000    0.00000   -0.08131
  3 Li   -0.00000   -0.00000   -0.08131
  4 Li    0.00000   -0.00000   -0.08131
  5 Li    0.00000   -0.00000   -0.08131
  6 Li   -0.00000    0.00000   -0.08131
  7 Li    0.00000    0.00000   -0.08131
  8 Li    0.00000    0.00000   -0.08131
  9 Li    0.00000    0.00000   -0.02058
 10 Li    0.00000    0.00000   -0.02058
 11 Li   -0.00000    0.00000   -0.02058
 12 Li    0.00000    0.00000   -0.02058
 13 Li    0.00000   -0.00000   -0.02058
 14 Li   -0.00000    0.00000   -0.02058
 15 Li   -0.00000   -0.00000   -0.02058
 16 Li    0.00000   -0.00000   -0.02058
 17 Li    0.00000    0.00000   -0.02058
 18 Li    0.00000    0.00000    0.03761
 19 Li    0.00000   -0.00000    0.03761
 20 Li   -0.00000   -0.00000    0.03761
 21 Li   -0.00000    0.00000    0.03761
 22 Li    0.00000   -0.00000    0.03761
 23 Li    0.00000    0.00000    0.03761
 24 Li   -0.00000    0.00000    0.03761
 25 Li    0.00000    0.00000    0.03761
 26 Li    0.00000    0.00000    0.03761
 27 Li    0.00000    0.00000    0.06402
 28 Li    0.00000    0.00000    0.06402
 29 Li   -0.00000    0.00000    0.06402
 30 Li    0.00000    0.00000    0.06402
 31 Li    0.00000   -0.00000    0.06402
 32 Li   -0.00000    0.00000    0.06402
 33 Li   -0.00000   -0.00000    0.06402
 34 Li    0.00000   -0.00000    0.06402
 35 Li    0.00000    0.00000    0.06402

System changes: positions 

Initializing position-dependent things.

Density initialized from wave functions
                                             
                                             
                                             
                                             
                                             
                  Li      Li      Li         
                    Li      Li      Li       
             Li      Li      Li              
       Li     LLi     LLi     Li             
         Li      Li      Li                  
                                             
                  Li      Li      Li         
             Li     LLi     LLi     Li       
              Li      Li      Li             
       Li      Li      Li                    
         Li      Li      Li                  
                                             
                                             
                                             
                                             
                                             

Positions:
   0 Li     0.000000    2.286836   10.000000    ( 0.0000,  0.0000,  0.0000)
   1 Li     3.234074    2.286836   10.000000    ( 0.0000,  0.0000,  0.0000)
   2 Li     6.468148    2.286836   10.000000    ( 0.0000,  0.0000,  0.0000)
   3 Li     1.617037    4.573671   10.000000    ( 0.0000,  0.0000,  0.0000)
   4 Li     4.851111    4.573671   10.000000    ( 0.0000,  0.0000,  0.0000)
   5 Li     8.085185    4.573671   10.000000    ( 0.0000,  0.0000,  0.0000)
   6 Li     3.234074    6.860507   10.000000    ( 0.0000,  0.0000,  0.0000)
   7 Li     6.468148    6.860507   10.000000    ( 0.0000,  0.0000,  0.0000)
   8 Li     9.702222    6.860507   10.000000    ( 0.0000,  0.0000,  0.0000)
   9 Li     0.000000    0.000000   12.286836    ( 0.0000,  0.0000,  0.0000)
  10 Li     3.234074    0.000000   12.286836    ( 0.0000,  0.0000,  0.0000)
  11 Li     6.468148    0.000000   12.286836    ( 0.0000,  0.0000,  0.0000)
  12 Li     1.617037    2.286836   12.286836    ( 0.0000,  0.0000,  0.0000)
  13 Li     4.851111    2.286836   12.286836    ( 0.0000,  0.0000,  0.0000)
  14 Li     8.085185    2.286836   12.286836    ( 0.0000,  0.0000,  0.0000)
  15 Li     3.234074    4.573671   12.286836    ( 0.0000,  0.0000,  0.0000)
  16 Li     6.468148    4.573671   12.286836    ( 0.0000,  0.0000,  0.0000)
  17 Li     9.702222    4.573671   12.286836    ( 0.0000,  0.0000,  0.0000)
  18 Li     0.000000    2.286836   14.601264    ( 0.0000,  0.0000,  0.0000)
  19 Li     3.234074    2.286836   14.601264    ( 0.0000,  0.0000,  0.0000)
  20 Li     6.468148    2.286836   14.601264    ( 0.0000,  0.0000,  0.0000)
  21 Li     1.617037    4.573671   14.601264    ( 0.0000,  0.0000,  0.0000)
  22 Li     4.851111    4.573671   14.601264    ( 0.0000,  0.0000,  0.0000)
  23 Li     8.085185    4.573671   14.601264    ( 0.0000,  0.0000,  0.0000)
  24 Li     3.234074    6.860507   14.601264    ( 0.0000,  0.0000,  0.0000)
  25 Li     6.468148    6.860507   14.601264    ( 0.0000,  0.0000,  0.0000)
  26 Li     9.702222    6.860507   14.601264    ( 0.0000,  0.0000,  0.0000)
  27 Li    -0.000000   -0.000000   16.911659    ( 0.0000,  0.0000,  0.0000)
  28 Li     3.234074   -0.000000   16.911659    ( 0.0000,  0.0000,  0.0000)
  29 Li     6.468148    0.000000   16.911659    ( 0.0000,  0.0000,  0.0000)
  30 Li     1.617037    2.286836   16.911659    ( 0.0000,  0.0000,  0.0000)
  31 Li     4.851111    2.286836   16.911659    ( 0.0000,  0.0000,  0.0000)
  32 Li     8.085185    2.286836   16.911659    ( 0.0000,  0.0000,  0.0000)
  33 Li     3.234074    4.573671   16.911659    ( 0.0000,  0.0000,  0.0000)
  34 Li     6.468148    4.573671   16.911659    ( 0.0000,  0.0000,  0.0000)
  35 Li     9.702222    4.573671   16.911659    ( 0.0000,  0.0000,  0.0000)

Unit cell:
           periodic     x           y           z      points  spacing
  1. axis:    yes    9.702222    0.000000    0.000000    48     0.1650
  2. axis:    yes    4.851111    6.860507    0.000000    48     0.1429
  3. axis:    no     0.000000    0.000000   26.860507   168     0.1599

  Lengths:   9.702222   8.402371  26.860507
  Angles:   90.000000  90.000000  54.735610

Effective grid spacing dv^(1/3) = 0.1665

     iter     time        total  log10-change:
                         energy  eigst   dens
iter:   1 22:01:29  -195.530871  -0.11
iter:   2 22:01:44  -195.556859  -0.09  -1.12
iter:   3 22:02:00  -195.191099  -1.15  -1.06
iter:   4 22:02:15  -195.195119  -0.52  -1.64
Writing to output.gpw (mode='')

iter:   5 22:02:31  -195.182862c -1.45  -1.76
iter:   6 22:02:46  -195.181871c -2.06  -2.19
iter:   7 22:03:02  -195.181637c -2.23  -2.34
iter:   8 22:03:17  -195.180973c -2.50  -2.37
iter:   9 22:03:32  -195.181168c -2.61  -2.89
Writing to output.gpw (mode='')

iter:  10 22:03:49  -195.181292c -2.85  -3.14
iter:  11 22:04:04  -195.181314c -3.25  -3.10
iter:  12 22:04:19  -195.181344c -3.43  -3.16
iter:  13 22:04:35  -195.181363c -3.60  -3.18
iter:  14 22:04:50  -195.181362c -3.66  -3.34
Writing to output.gpw (mode='')

iter:  15 22:05:06  -195.181386c -4.04  -3.51
iter:  16 22:05:22  -195.181393c -3.86  -3.49
iter:  17 22:05:37  -195.181388c -4.21  -3.65
iter:  18 22:05:53  -195.181390c -4.41  -3.67
iter:  19 22:06:08  -195.181382c -4.32  -3.78
Writing to output.gpw (mode='')

iter:  20 22:06:24  -195.181400c -4.48  -3.67
iter:  21 22:06:39  -195.181400c -4.83  -3.73
iter:  22 22:06:55  -195.181397c -4.78  -3.69
iter:  23 22:07:10  -195.181393c -4.99  -3.75
iter:  24 22:07:26  -195.181384c -5.12  -3.80
Writing to output.gpw (mode='')

iter:  25 22:07:42  -195.181382c -5.61  -4.08c
iter:  26 22:07:57  -195.181381c -5.74  -4.11c
iter:  27 22:08:12  -195.181385c -5.80  -4.10c
iter:  28 22:08:28  -195.181383c -6.00  -4.34c
iter:  29 22:08:43  -195.181382c -6.09  -4.59c
Writing to output.gpw (mode='')

iter:  30 22:08:59  -195.181381c -6.16  -4.74c
iter:  31 22:09:15  -195.181381c -6.34  -4.91c
iter:  32 22:09:30  -195.181382c -6.37  -4.95c
iter:  33 22:09:45  -195.181381c -6.41  -4.97c
iter:  34 22:10:01  -195.181381c -6.39  -5.00c
Writing to output.gpw (mode='')

iter:  35 22:10:17  -195.181382c -6.51  -5.05c
iter:  36 22:10:32  -195.181382c -6.58  -5.15c
iter:  37 22:10:48  -195.181382c -6.68  -5.21c
iter:  38 22:11:03  -195.181382c -6.66  -5.27c
iter:  39 22:11:18  -195.181382c -6.70  -5.51c
Writing to output.gpw (mode='')

iter:  40 22:11:36  -195.181382c -6.83  -5.50c
iter:  41 22:11:51  -195.181381c -6.82  -5.56c
iter:  42 22:12:07  -195.181381c -6.91  -5.54c
iter:  43 22:12:22  -195.181381c -6.94  -5.48c
iter:  44 22:12:38  -195.181381c -6.84  -5.47c
Writing to output.gpw (mode='')

iter:  45 22:12:54  -195.181381c -7.00  -5.43c
iter:  46 22:13:09  -195.181381c -7.05  -5.35c
iter:  47 22:13:24  -195.181381c -7.07  -5.36c
iter:  48 22:13:40  -195.181381c -7.03  -5.34c
iter:  49 22:13:55  -195.181381c -7.16  -5.32c
Writing to output.gpw (mode='')

iter:  50 22:14:11  -195.181381c -7.24  -5.31c
iter:  51 22:14:26  -195.181381c -7.29  -5.12c
iter:  52 22:14:42  -195.181381c -7.32  -5.33c
iter:  53 22:14:57  -195.181381c -7.22  -5.36c
iter:  54 22:15:13  -195.181381c -7.38  -5.40c
Writing to output.gpw (mode='')

iter:  55 22:15:28  -195.181381c -7.36  -5.69c
iter:  56 22:15:44  -195.181381c -7.48c -5.73c

Converged after 56 iterations.

Dipole moment: (-5.410026, -4.119553, -0.005766) |e|*Ang

Energy contributions relative to reference atoms: (reference = -7300.361529)

Kinetic:       +105.789074
Potential:      -82.546980
External:        +0.000000
XC:            -218.054388
Entropy (-ST):   -0.193007
Local:           -0.272583
--------------------------
Free energy:   -195.277884
Extrapolated:  -195.181381

Dipole-layer corrected work functions: 3.602612, 3.618288 eV

Showing all kpts
 Kpt  Band  Eigenvalues  Occupancy
  0    16     -3.68598    1.63829
  0    17     -3.48843    0.16027
  0    18     -3.47259    0.11937
  0    19     -3.37483    0.01781

  1    16     -3.99188    1.99903
  1    17     -3.69479    1.68762
  1    18     -3.67463    1.56615
  1    19     -3.59085    0.80651


Fermi level: -3.61045

No gap
Writing to output.gpw (mode='')


Forces in eV/Ang:
  0 Li    0.00000   -0.00000   -0.08140
  1 Li   -0.00000   -0.00000   -0.08140
  2 Li    0.00000   -0.00000   -0.08140
  3 Li    0.00000    0.00000   -0.08140
  4 Li    0.00000    0.00000   -0.08140
  5 Li   -0.00000    0.00000   -0.08140
  6 Li    0.00000    0.00000   -0.08140
  7 Li   -0.00000    0.00000   -0.08140
  8 Li    0.00000    0.00000   -0.08140
  9 Li    0.00000    0.00000   -0.01517
 10 Li   -0.00000    0.00000   -0.01517
 11 Li    0.00000    0.00000   -0.01517
 12 Li   -0.00000   -0.00000   -0.01517
 13 Li    0.00000    0.00000   -0.01517
 14 Li    0.00000   -0.00000   -0.01517
 15 Li    0.00000    0.00000   -0.01517
 16 Li   -0.00000    0.00000   -0.01517
 17 Li    0.00000   -0.00000   -0.01517
 18 Li    0.00000   -0.00000    0.03623
 19 Li   -0.00000    0.00000    0.03623
 20 Li    0.00000    0.00000    0.03623
 21 Li    0.00000   -0.00000    0.03623
 22 Li    0.00000    0.00000    0.03623
 23 Li   -0.00000   -0.00000    0.03623
 24 Li    0.00000    0.00000    0.03623
 25 Li   -0.00000    0.00000    0.03623
 26 Li    0.00000    0.00000    0.03623
 27 Li    0.00000    0.00000    0.05985
 28 Li   -0.00000    0.00000    0.05985
 29 Li    0.00000    0.00000    0.05985
 30 Li   -0.00000   -0.00000    0.05985
 31 Li    0.00000    0.00000    0.05985
 32 Li    0.00000   -0.00000    0.05985
 33 Li    0.00000    0.00000    0.05985
 34 Li   -0.00000    0.00000    0.05985
 35 Li    0.00000   -0.00000    0.05985

System changes: positions 

Initializing position-dependent things.

Density initialized from wave functions
                                             
                                             
                                             
                                             
                                             
                  Li      Li      Li         
                    Li      Li      Li       
             Li      Li      Li              
       Li     LLi     LLi     Li             
         Li      Li      Li                  
                                             
                  Li      Li      Li         
             Li     LLi     LLi     Li       
              Li      Li      Li             
       Li      Li      Li                    
         Li      Li      Li                  
                                             
                                             
                                             
                                             
                                             

Positions:
   0 Li     0.000000    2.286836   10.000000    ( 0.0000,  0.0000,  0.0000)
   1 Li     3.234074    2.286836   10.000000    ( 0.0000,  0.0000,  0.0000)
   2 Li     6.468148    2.286836   10.000000    ( 0.0000,  0.0000,  0.0000)
   3 Li     1.617037    4.573671   10.000000    ( 0.0000,  0.0000,  0.0000)
   4 Li     4.851111    4.573671   10.000000    ( 0.0000,  0.0000,  0.0000)
   5 Li     8.085185    4.573671   10.000000    ( 0.0000,  0.0000,  0.0000)
   6 Li     3.234074    6.860507   10.000000    ( 0.0000,  0.0000,  0.0000)
   7 Li     6.468148    6.860507   10.000000    ( 0.0000,  0.0000,  0.0000)
   8 Li     9.702222    6.860507   10.000000    ( 0.0000,  0.0000,  0.0000)
   9 Li     0.000000    0.000000   12.286836    ( 0.0000,  0.0000,  0.0000)
  10 Li     3.234074    0.000000   12.286836    ( 0.0000,  0.0000,  0.0000)
  11 Li     6.468148    0.000000   12.286836    ( 0.0000,  0.0000,  0.0000)
  12 Li     1.617037    2.286836   12.286836    ( 0.0000,  0.0000,  0.0000)
  13 Li     4.851111    2.286836   12.286836    ( 0.0000,  0.0000,  0.0000)
  14 Li     8.085185    2.286836   12.286836    ( 0.0000,  0.0000,  0.0000)
  15 Li     3.234074    4.573671   12.286836    ( 0.0000,  0.0000,  0.0000)
  16 Li     6.468148    4.573671   12.286836    ( 0.0000,  0.0000,  0.0000)
  17 Li     9.702222    4.573671   12.286836    ( 0.0000,  0.0000,  0.0000)
  18 Li     0.000000    2.286836   14.606702    ( 0.0000,  0.0000,  0.0000)
  19 Li     3.234074    2.286836   14.606702    ( 0.0000,  0.0000,  0.0000)
  20 Li     6.468148    2.286836   14.606702    ( 0.0000,  0.0000,  0.0000)
  21 Li     1.617037    4.573671   14.606702    ( 0.0000,  0.0000,  0.0000)
  22 Li     4.851111    4.573671   14.606702    ( 0.0000,  0.0000,  0.0000)
  23 Li     8.085185    4.573671   14.606702    ( 0.0000,  0.0000,  0.0000)
  24 Li     3.234074    6.860507   14.606702    ( 0.0000,  0.0000,  0.0000)
  25 Li     6.468148    6.860507   14.606702    ( 0.0000,  0.0000,  0.0000)
  26 Li     9.702222    6.860507   14.606702    ( 0.0000,  0.0000,  0.0000)
  27 Li    -0.000000   -0.000000   16.921659    ( 0.0000,  0.0000,  0.0000)
  28 Li     3.234074   -0.000000   16.921659    ( 0.0000,  0.0000,  0.0000)
  29 Li     6.468148    0.000000   16.921659    ( 0.0000,  0.0000,  0.0000)
  30 Li     1.617037    2.286836   16.921659    ( 0.0000,  0.0000,  0.0000)
  31 Li     4.851111    2.286836   16.921659    ( 0.0000,  0.0000,  0.0000)
  32 Li     8.085185    2.286836   16.921659    ( 0.0000,  0.0000,  0.0000)
  33 Li     3.234074    4.573671   16.921659    ( 0.0000,  0.0000,  0.0000)
  34 Li     6.468148    4.573671   16.921659    ( 0.0000,  0.0000,  0.0000)
  35 Li     9.702222    4.573671   16.921659    ( 0.0000,  0.0000,  0.0000)

Unit cell:
           periodic     x           y           z      points  spacing
  1. axis:    yes    9.702222    0.000000    0.000000    48     0.1650
  2. axis:    yes    4.851111    6.860507    0.000000    48     0.1429
  3. axis:    no     0.000000    0.000000   26.860507   168     0.1599

  Lengths:   9.702222   8.402371  26.860507
  Angles:   90.000000  90.000000  54.735610

Effective grid spacing dv^(1/3) = 0.1665

     iter     time        total  log10-change:
                         energy  eigst   dens
iter:   1 22:16:03  -195.543639  -0.15
[...]
iter:  37 00:16:52  -195.194654c -6.51  -4.38c
iter:  38 00:18:16  -195.194654c -6.55  -4.48c
iter:  39 00:19:43  -195.194654c -6.70  -4.48c
Writing to output.gpw (mode='')

iter:  40 00:21:06  -195.194654c -6.75  -4.66c
iter:  41 00:22:28  -195.194653c -6.87  -4.83c
iter:  42 00:23:55  -195.194653c -6.97  -4.97c
iter:  43 00:25:24  -195.194653c -7.03  -5.14c
iter:  44 00:26:50  -195.194653c -7.07  -5.19c
Writing to output.gpw (mode='')

iter:  45 00:28:27  -195.194653c -7.11  -5.31c
iter:  46 00:29:56  -195.194653c -7.17  -5.42c
iter:  47 00:31:26  -195.194653c -7.21  -5.64c
iter:  48 00:33:00  -195.194653c -7.25  -5.74c
iter:  49 00:34:27  -195.194653c -7.29  -5.82c
Writing to output.gpw (mode='')

iter:  50 00:35:58  -195.194653c -7.33  -5.86c
iter:  51 00:37:29  -195.194653c -7.36  -5.87c
iter:  52 00:39:04  -195.194653c -7.43c -5.95c

Converged after 52 iterations.

Dipole moment: (-5.409916, -4.119505, -0.008080) |e|*Ang

Energy contributions relative to reference atoms: (reference = -7300.361529)

Kinetic:       +105.202192
Potential:      -82.163976
External:        +0.000000
XC:            -217.865081
Entropy (-ST):   -0.193362
Local:           -0.271108
--------------------------
Free energy:   -195.291335
Extrapolated:  -195.194653

Dipole-layer corrected work functions: 3.600266, 3.622233 eV

Showing all kpts
 Kpt  Band  Eigenvalues  Occupancy
  0    16     -3.69138    1.66476
  0    17     -3.48725    0.15455
  0    18     -3.46817    0.10817
  0    19     -3.38027    0.01952

  1    16     -3.99480    1.99907
  1    17     -3.69511    1.68505
  1    18     -3.66988    1.52721
  1    19     -3.59428    0.83192


Fermi level: -3.61125

No gap
Writing to output.gpw (mode='')


Forces in eV/Ang:
  0 Li    0.00000   -0.00000   -0.08161
  1 Li   -0.00000   -0.00000   -0.08161
  2 Li    0.00000   -0.00000   -0.08161
  3 Li    0.00000    0.00000   -0.08161
  4 Li    0.00000    0.00000   -0.08161
  5 Li   -0.00000    0.00000   -0.08161
  6 Li    0.00000    0.00000   -0.08161
  7 Li   -0.00000    0.00000   -0.08161
  8 Li    0.00000    0.00000   -0.08161
  9 Li    0.00000    0.00000   -0.00444
 10 Li    0.00000    0.00000   -0.00444
 11 Li   -0.00000    0.00000   -0.00444
 12 Li    0.00000   -0.00000   -0.00444
 13 Li    0.00000    0.00000   -0.00444
 14 Li   -0.00000   -0.00000   -0.00444
 15 Li   -0.00000    0.00000   -0.00444
 16 Li    0.00000    0.00000   -0.00444
 17 Li    0.00000   -0.00000   -0.00444
 18 Li    0.00000    0.00000    0.03370
 19 Li    0.00000   -0.00000    0.03370
 20 Li   -0.00000   -0.00000    0.03370
 21 Li   -0.00000    0.00000    0.03370
 22 Li    0.00000   -0.00000    0.03370
 23 Li    0.00000    0.00000    0.03370
 24 Li   -0.00000    0.00000    0.03370
 25 Li    0.00000    0.00000    0.03370
 26 Li    0.00000    0.00000    0.03370
 27 Li    0.00000    0.00000    0.05172
 28 Li   -0.00000    0.00000    0.05172
 29 Li    0.00000    0.00000    0.05172
 30 Li   -0.00000   -0.00000    0.05172
 31 Li    0.00000    0.00000    0.05172
 32 Li    0.00000   -0.00000    0.05172
 33 Li    0.00000    0.00000    0.05172
 34 Li   -0.00000    0.00000    0.05172
 35 Li    0.00000   -0.00000    0.05172

System changes: positions 

Initializing position-dependent things.

Density initialized from wave functions
                                             
                                             
                                             
                                             
                                             
                  Li      Li      Li         
                    Li      Li      Li       
             Li      Li      Li              
       Li     LLi     LLi     Li             
         Li      Li      Li                  
                                             
                  Li      Li      Li         
             Li     LLi     LLi     Li       
              Li      Li      Li             
       Li      Li      Li                    
         Li      Li      Li                  
                                             
                                             
                                             
                                             
                                             

Positions:
   0 Li     0.000000    2.286836   10.000000    ( 0.0000,  0.0000,  0.0000)
   1 Li     3.234074    2.286836   10.000000    ( 0.0000,  0.0000,  0.0000)
   2 Li     6.468148    2.286836   10.000000    ( 0.0000,  0.0000,  0.0000)
   3 Li     1.617037    4.573671   10.000000    ( 0.0000,  0.0000,  0.0000)
   4 Li     4.851111    4.573671   10.000000    ( 0.0000,  0.0000,  0.0000)
   5 Li     8.085185    4.573671   10.000000    ( 0.0000,  0.0000,  0.0000)
   6 Li     3.234074    6.860507   10.000000    ( 0.0000,  0.0000,  0.0000)
   7 Li     6.468148    6.860507   10.000000    ( 0.0000,  0.0000,  0.0000)
   8 Li     9.702222    6.860507   10.000000    ( 0.0000,  0.0000,  0.0000)
   9 Li     0.000000    0.000000   12.286836    ( 0.0000,  0.0000,  0.0000)
  10 Li     3.234074    0.000000   12.286836    ( 0.0000,  0.0000,  0.0000)
  11 Li     6.468148    0.000000   12.286836    ( 0.0000,  0.0000,  0.0000)
  12 Li     1.617037    2.286836   12.286836    ( 0.0000,  0.0000,  0.0000)
  13 Li     4.851111    2.286836   12.286836    ( 0.0000,  0.0000,  0.0000)
  14 Li     8.085185    2.286836   12.286836    ( 0.0000,  0.0000,  0.0000)
  15 Li     3.234074    4.573671   12.286836    ( 0.0000,  0.0000,  0.0000)
  16 Li     6.468148    4.573671   12.286836    ( 0.0000,  0.0000,  0.0000)
  17 Li     9.702222    4.573671   12.286836    ( 0.0000,  0.0000,  0.0000)
  18 Li     0.000000    2.286836   14.617633    ( 0.0000,  0.0000,  0.0000)
  19 Li     3.234074    2.286836   14.617633    ( 0.0000,  0.0000,  0.0000)
  20 Li     6.468148    2.286836   14.617633    ( 0.0000,  0.0000,  0.0000)
  21 Li     1.617037    4.573671   14.617633    ( 0.0000,  0.0000,  0.0000)
  22 Li     4.851111    4.573671   14.617633    ( 0.0000,  0.0000,  0.0000)
  23 Li     8.085185    4.573671   14.617633    ( 0.0000,  0.0000,  0.0000)
  24 Li     3.234074    6.860507   14.617633    ( 0.0000,  0.0000,  0.0000)
  25 Li     6.468148    6.860507   14.617633    ( 0.0000,  0.0000,  0.0000)
  26 Li     9.702222    6.860507   14.617633    ( 0.0000,  0.0000,  0.0000)
  27 Li    -0.000000   -0.000000   16.941659    ( 0.0000,  0.0000,  0.0000)
  28 Li     3.234074   -0.000000   16.941659    ( 0.0000,  0.0000,  0.0000)
  29 Li     6.468148    0.000000   16.941659    ( 0.0000,  0.0000,  0.0000)
  30 Li     1.617037    2.286836   16.941659    ( 0.0000,  0.0000,  0.0000)
  31 Li     4.851111    2.286836   16.941659    ( 0.0000,  0.0000,  0.0000)
  32 Li     8.085185    2.286836   16.941659    ( 0.0000,  0.0000,  0.0000)
  33 Li     3.234074    4.573671   16.941659    ( 0.0000,  0.0000,  0.0000)
  34 Li     6.468148    4.573671   16.941659    ( 0.0000,  0.0000,  0.0000)
  35 Li     9.702222    4.573671   16.941659    ( 0.0000,  0.0000,  0.0000)

Unit cell:
           periodic     x           y           z      points  spacing
  1. axis:    yes    9.702222    0.000000    0.000000    48     0.1650
  2. axis:    yes    4.851111    6.860507    0.000000    48     0.1429
  3. axis:    no     0.000000    0.000000   26.860507   168     0.1599

  Lengths:   9.702222   8.402371  26.860507
  Angles:   90.000000  90.000000  54.735610

Effective grid spacing dv^(1/3) = 0.1665

     iter     time        total  log10-change:
                         energy  eigst   dens
iter:   1 00:40:50  -195.558487  -0.15
iter:   2 00:42:19  -195.629546  -0.09  -1.11
iter:   3 00:43:50  -195.209533  -1.11  -1.03
iter:   4 00:45:18  -195.220571  -0.43  -1.63
Writing to output.gpw (mode='')

iter:   5 00:46:42  -195.202678c -1.39  -1.69
iter:   6 00:48:06  -195.201927  -1.94  -2.14
iter:   7 00:49:33  -195.201176c -2.18  -2.26
iter:   8 00:50:56  -195.200263c -2.54  -2.32
iter:   9 00:52:30  -195.200364c -2.64  -2.77
Writing to output.gpw (mode='')

iter:  10 00:53:54  -195.200539c -2.77  -3.15
iter:  11 00:55:25  -195.200637c -2.88  -2.97
iter:  12 00:56:52  -195.200620c -3.10  -2.99
iter:  13 00:58:24  -195.200640c -3.54  -3.19
iter:  14 00:59:47  -195.200652c -3.74  -3.26
Writing to output.gpw (mode='')

iter:  15 01:01:12  -195.200689c -3.67  -3.28
iter:  16 01:02:37  -195.200673c -4.14  -3.16
iter:  17 01:04:01  -195.200689c -4.54  -3.26
iter:  18 01:05:38  -195.200683c -4.39  -3.17
iter:  19 01:07:06  -195.200687c -4.80  -3.29
Writing to output.gpw (mode='')

iter:  20 01:08:40  -195.200674c -4.34  -3.33
iter:  21 01:10:07  -195.200676c -5.12  -3.62
iter:  22 01:11:34  -195.200678c -4.89  -3.70
iter:  23 01:13:01  -195.200677c -5.40  -3.68
iter:  24 01:14:33  -195.200673c -4.92  -3.81
Writing to output.gpw (mode='')

iter:  25 01:16:00  -195.200674c -5.48  -3.59
iter:  26 01:17:38  -195.200669c -5.55  -3.73
iter:  27 01:19:05  -195.200670c -5.20  -3.77
iter:  28 01:20:40  -195.200670c -5.78  -4.03c
iter:  29 01:22:15  -195.200670c -5.15  -3.99
Writing to output.gpw (mode='')

iter:  30 01:23:41  -195.200667c -5.54  -3.91
iter:  31 01:25:09  -195.200666c -6.28  -4.23c
iter:  32 01:26:33  -195.200666c -6.24  -4.30c
iter:  33 01:27:59  -195.200669c -6.24  -4.40c
iter:  34 01:29:19  -195.200668c -6.23  -4.40c
Writing to output.gpw (mode='')

iter:  35 01:30:45  -195.200669c -6.57  -4.64c
iter:  36 01:32:18  -195.200668c -6.62  -4.69c
iter:  37 01:33:42  -195.200668c -6.74  -4.74c
iter:  38 01:35:05  -195.200668c -6.70  -4.84c
iter:  39 01:36:31  -195.200668c -6.82  -4.85c
Writing to output.gpw (mode='')

iter:  40 01:37:59  -195.200668c -6.75  -4.91c
iter:  41 01:39:23  -195.200668c -6.73  -4.66c
iter:  42 01:40:51  -195.200669c -6.96  -5.28c
iter:  43 01:42:17  -195.200669c -7.05  -5.27c
iter:  44 01:43:41  -195.200669c -7.08  -5.35c
Writing to output.gpw (mode='')

iter:  45 01:45:10  -195.200669c -7.14  -5.33c
iter:  46 01:46:42  -195.200669c -7.20  -5.33c
iter:  47 01:48:15  -195.200669c -7.23  -5.46c
iter:  48 01:49:46  -195.200669c -7.30  -5.47c
iter:  49 01:51:13  -195.200669c -7.31  -5.48c
Writing to output.gpw (mode='')

iter:  50 01:52:44  -195.200669c -7.37  -5.31c
iter:  51 01:54:20  -195.200669c -7.42c -5.42c

Converged after 51 iterations.

Dipole moment: (-5.409865, -4.119484, -0.009222) |e|*Ang

Energy contributions relative to reference atoms: (reference = -7300.361529)

Kinetic:       +104.911374
Potential:      -81.973857
External:        +0.000000
XC:            -217.771031
Entropy (-ST):   -0.193564
Local:           -0.270373
--------------------------
Free energy:   -195.297451
Extrapolated:  -195.200669

Dipole-layer corrected work functions: 3.599053, 3.624126 eV

Showing all kpts
 Kpt  Band  Eigenvalues  Occupancy
  0    16     -3.69405    1.67757
  0    17     -3.48664    0.15187
  0    18     -3.46595    0.10306
  0    19     -3.38296    0.02045

  1    16     -3.99621    1.99909
  1    17     -3.69524    1.68396
  1    18     -3.66749    1.50723
  1    19     -3.59594    0.84473


Fermi level: -3.61159

No gap
Writing to output.gpw (mode='')


Forces in eV/Ang:
  0 Li    0.00000    0.00000   -0.08172
  1 Li    0.00000   -0.00000   -0.08172
  2 Li   -0.00000   -0.00000   -0.08172
  3 Li   -0.00000    0.00000   -0.08172
  4 Li    0.00000   -0.00000   -0.08172
  5 Li    0.00000    0.00000   -0.08172
  6 Li   -0.00000    0.00000   -0.08172
  7 Li    0.00000    0.00000   -0.08172
  8 Li    0.00000    0.00000   -0.08172
  9 Li    0.00000    0.00000    0.00091
 10 Li   -0.00000    0.00000    0.00091
 11 Li    0.00000    0.00000    0.00091
 12 Li   -0.00000   -0.00000    0.00091
 13 Li    0.00000    0.00000    0.00091
 14 Li    0.00000   -0.00000    0.00091
 15 Li    0.00000    0.00000    0.00091
 16 Li   -0.00000    0.00000    0.00091
 17 Li    0.00000   -0.00000    0.00091
 18 Li    0.00000   -0.00000    0.03245
 19 Li   -0.00000    0.00000    0.03245
 20 Li    0.00000    0.00000    0.03245
 21 Li    0.00000   -0.00000    0.03245
 22 Li    0.00000    0.00000    0.03245
 23 Li   -0.00000   -0.00000    0.03245
 24 Li    0.00000    0.00000    0.03245
 25 Li   -0.00000    0.00000    0.03245
 26 Li    0.00000    0.00000    0.03245
 27 Li    0.00000    0.00000    0.04799
 28 Li    0.00000    0.00000    0.04799
 29 Li   -0.00000    0.00000    0.04799
 30 Li    0.00000    0.00000    0.04799
 31 Li    0.00000   -0.00000    0.04799
 32 Li   -0.00000    0.00000    0.04799
 33 Li   -0.00000   -0.00000    0.04799
 34 Li    0.00000   -0.00000    0.04799
 35 Li    0.00000    0.00000    0.04799

Timing:                                      incl.     excl.
-------------------------------------------------------------------
Density initialized from wave functions:     5.130     2.283   0.0% |
 Symmetrize density:                         2.847     2.847   0.0% |
Forces:                                     14.370    14.370   0.0% |
Hamiltonian:                               606.225     0.001   0.0% |
 Atomic:                                     1.591     0.009   0.0% |
  XC Correction:                             1.583     1.583   0.0% |
 Calculate atomic Hamiltonians:              1.465     1.465   0.0% |
 Communicate:                                2.692     2.692   0.0% |
 Hartree integrate/restrict:                 0.385     0.385   0.0% |
 Initialize Hamiltonian:                     0.000     0.000   0.0% |
 Poisson:                                    8.379     2.801   0.0% |
  Communicate from 1D:                       1.237     1.237   0.0% |
  Communicate from 2D:                       1.393     1.393   0.0% |
  Communicate to 1D:                         0.566     0.566   0.0% |
  Communicate to 2D:                         1.146     1.146   0.0% |
  FFT 1D:                                    0.615     0.615   0.0% |
  FFT 2D:                                    0.620     0.620   0.0% |
 XC 3D grid:                               591.681    24.506   0.1% |
  VdW-DF integral:                         567.175     1.175   0.0% |
   Convolution:                             32.807    32.807   0.1% |
   FFT:                                      6.785     6.785   0.0% |
   gather:                                 444.374   444.374   0.9% |
   hmm1:                                     6.072     6.072   0.0% |
   hmm2:                                     8.142     8.142   0.0% |
   iFFT:                                     6.588     6.588   0.0% |
   potential:                               48.981     0.348   0.0% |
    collect:                                 8.276     8.276   0.0% |
    p1:                                     18.862    18.862   0.0% |
    p2:                                     12.000    12.000   0.0% |
    sum:                                     9.495     9.495   0.0% |
   splines:                                 12.250    12.250   0.0% |
 vbar:                                       0.030     0.030   0.0% |
LCAO initialization:                         2.816     0.087   0.0% |
 LCAO eigensolver:                           1.226     0.001   0.0% |
  Calculate projections:                     0.000     0.000   0.0% |
  DenseAtomicCorrection:                     0.000     0.000   0.0% |
  Distribute overlap matrix:                 1.077     1.077   0.0% |
  Orbital Layouts:                           0.148     0.148   0.0% |
  Potential matrix:                          0.000     0.000   0.0% |
  Sum over cells:                            0.001     0.001   0.0% |
 LCAO to grid:                               0.537     0.537   0.0% |
 Set positions (LCAO WFS):                   0.966     0.605   0.0% |
  Basic WFS set positions:                   0.025     0.025   0.0% |
  Basis functions set positions:             0.001     0.001   0.0% |
  P tci:                                     0.013     0.013   0.0% |
  ST tci:                                    0.108     0.108   0.0% |
  mktci:                                     0.215     0.215   0.0% |
Redistribute:                                0.007     0.007   0.0% |
SCF-cycle:                               46786.232   477.224   1.0% |
 Davidson:                                7502.249  4381.465   9.2% |---|
  Apply hamiltonian:                       490.818   490.818   1.0% |
  Subspace diag:                           674.284     0.159   0.0% |
   calc_h_matrix:                          524.163    49.736   0.1% |
    Apply hamiltonian:                     474.428   474.428   1.0% |
   diagonalize:                             48.345    48.345   0.1% |
   rotate_psi:                             101.617   101.617   0.2% |
  calc. matrices:                         1733.589   505.413   1.1% |
   Apply hamiltonian:                     1228.175  1228.175   2.6% ||
  diagonalize:                               3.413     3.413   0.0% |
  rotate_psi:                              218.680   218.680   0.5% |
 Density:                                  387.216     0.022   0.0% |
  Atomic density matrices:                  31.318    31.318   0.1% |
  Mix:                                     112.708   112.708   0.2% |
  Multipole moments:                         7.002     7.002   0.0% |
  Pseudo density:                          236.167    15.906   0.0% |
   Symmetrize density:                     220.261   220.261   0.5% |
 Hamiltonian:                            38415.134     0.117   0.0% |
  Atomic:                                   89.804     0.865   0.0% |
   XC Correction:                           88.939    88.939   0.2% |
  Calculate atomic Hamiltonians:            89.636    89.636   0.2% |
  Communicate:                             179.615   179.615   0.4% |
  Hartree integrate/restrict:               36.552    36.552   0.1% |
  Poisson:                                 521.581   188.534   0.4% |
   Communicate from 1D:                     71.623    71.623   0.2% |
   Communicate from 2D:                     79.870    79.870   0.2% |
   Communicate to 1D:                       36.042    36.042   0.1% |
   Communicate to 2D:                       71.578    71.578   0.2% |
   FFT 1D:                                  37.240    37.240   0.1% |
   FFT 2D:                                  36.694    36.694   0.1% |
  XC 3D grid:                            37495.608  1492.234   3.1% ||
   VdW-DF integral:                      36003.374    75.095   0.2% |
    Convolution:                          1993.912  1993.912   4.2% |-|
    FFT:                                   406.414   406.414   0.9% |
    gather:                              29178.123 29178.123  61.5% |------------------------|
    hmm1:                                  370.553   370.553   0.8% |
    hmm2:                                  525.581   525.581   1.1% |
    iFFT:                                  409.016   409.016   0.9% |
    potential:                            3044.673    22.450   0.0% |
     collect:                              525.201   525.201   1.1% |
     p1:                                  1094.032  1094.032   2.3% ||
     p2:                                   698.128   698.128   1.5% ||
     sum:                                  704.862   704.862   1.5% ||
    splines:                                 0.006     0.006   0.0% |
  vbar:                                      2.220     2.220   0.0% |
 Orthonormalize:                             4.408     0.002   0.0% |
  calc_s_matrix:                             0.417     0.417   0.0% |
  inverse-cholesky:                          3.071     3.071   0.0% |
  projections:                               0.000     0.000   0.0% |
  rotate_psi_s:                              0.918     0.918   0.0% |
Set symmetry:                                0.006     0.006   0.0% |
Other:                                      53.367    53.367   0.1% |
-------------------------------------------------------------------
Total:                                             47468.153 100.0%

Memory usage: 757.59 MiB
Date: Mon Jan 23 01:54:23 2023
