
  ___ ___ ___ _ _ _  
 |   |   |_  | | | | 
 | | | | | . | | | | 
 |__ |  _|___|_____|  22.8.0
 |___|_|             

User:   vazumah@c22.hercules
Date:   Thu Jan 19 01:10:12 2023
Arch:   x86_64
Pid:    14388
CWD:    /home/vazumah/Python_projects/LiNRR/autocad_start/slab_experiments/free_slabs/Li/bcc111/substrate
Python: 3.10.8
gpaw:   /home/vazumah/.conda/envs/GPAW/lib/python3.10/site-packages/gpaw
_gpaw:  /home/vazumah/.conda/envs/GPAW/lib/python3.10/site-packages/
        _gpaw.cpython-310-x86_64-linux-gnu.so
ase:    /home/vazumah/.conda/envs/GPAW/lib/python3.10/site-packages/ase (version 3.22.1)
numpy:  /home/vazumah/.conda/envs/GPAW/lib/python3.10/site-packages/numpy (version 1.24.1)
scipy:  /home/vazumah/.conda/envs/GPAW/lib/python3.10/site-packages/scipy (version 1.10.0)
libxc:  5.2.3
units:  Angstrom and eV
cores: 24
OpenMP: True
OMP_NUM_THREADS: 1

Input parameters:
  h: 0.16
  kpts: {size: [4, 4, 1]}
  maxiter: 999
  occupations: {name: fermi-dirac,
                width: 0.05}
  poissonsolver: {dipolelayer: xy}
  xc: BEEF-vdW

System changes: positions, numbers, cell, pbc, initial_charges, initial_magmoms 

Initialize ...

species:
  Li:
    name: Lithium
    id: 830b4218f175192f93f959cfc0aad614
    Z: 3.0
    valence: 1
    core: 2
    charge: 0.0
    file: /home/vazumah/.conda/envs/GPAW/share/gpaw/Li.PBE.gz
    compensation charges: {type: gauss,
                           rc: 0.33,
                           lmax: 2}
    cutoffs: {filter: 1.91,
              core: 2.55}
    valence states:
      #              energy  rcut
      - 2s(1.00)    -2.874   1.058
      - 2p(0.00)    -1.090   1.058
      -  s          24.337   1.058
  
    # Using partial waves for Li as LCAO basis

Reference energy: -7300.361529  # eV

Spin-paired calculation

Convergence criteria:
 Maximum [total energy] change in last 3 cyles: 0.0005 eV / electron
 Maximum integral of absolute [dens]ity change: 0.0001 electrons / valence electron
 Maximum integral of absolute [eigenst]ate change: 4e-08 eV^2 / valence electron
 Maximum number of scf [iter]ations: 999
 (Square brackets indicate name in SCF output, whereas a 'c' in
 the SCF output indicates the quantity has converged.)

Symmetries present (total): 12

  ( 1  0  0)  ( 1  0  0)  ( 1 -1  0)  ( 1 -1  0)  ( 0  1  0)  ( 0  1  0)
  ( 1 -1  0)  ( 0  1  0)  ( 1  0  0)  ( 0 -1  0)  ( 1  0  0)  (-1  1  0)
  ( 0  0 -1)  ( 0  0  1)  ( 0  0 -1)  ( 0  0  1)  ( 0  0  1)  ( 0  0 -1)

  ( 0 -1  0)  ( 0 -1  0)  (-1  1  0)  (-1  1  0)  (-1  0  0)  (-1  0  0)
  ( 1 -1  0)  (-1  0  0)  ( 0  1  0)  (-1  0  0)  ( 0 -1  0)  (-1  1  0)
  ( 0  0  1)  ( 0  0 -1)  ( 0  0 -1)  ( 0  0  1)  ( 0  0 -1)  ( 0  0  1)
Note: your k-points are not as symmetric as your crystal!

16 k-points: 4 x 4 x 1 Monkhorst-Pack grid
6 k-points in the irreducible part of the Brillouin zone
       k-points in crystal coordinates                weights
   0:     0.12500000   -0.12500000    0.00000000          2/16
   1:     0.12500000    0.12500000    0.00000000          2/16
   2:     0.37500000   -0.37500000    0.00000000          2/16
   3:     0.37500000   -0.12500000    0.00000000          4/16
   4:     0.37500000    0.12500000    0.00000000          4/16
   5:     0.37500000    0.37500000    0.00000000          2/16

Wave functions: Uniform real-space grid
  Kinetic energy operator: 8*3+1=25 point O(h^6) finite-difference Laplacian
  ScaLapack parameters: grid=1x1, blocksize=None
  Wavefunction extrapolation:
    Improved wavefunction reuse through dual PAW basis 

Occupation numbers: Fermi-Dirac:
  width: 0.0500  # eV
 

Eigensolver
   Davidson(niter=2) 

Densities:
  Coarse grid: 76*76*144 grid
  Fine grid: 152*152*288 grid
  Total Charge: 0.000000 

Density mixing:
  Method: separate
  Backend: pulay
  Linear mixing parameter: 0.05
  old densities: 5
  Damping of long wavelength oscillations: 50 

Hamiltonian:
  XC and Coulomb potentials evaluated on a 152*152*288 grid
  Using the BEEF-vdW Exchange-Correlation functional
  Interpolation: tri-quintic (5. degree polynomial)
  Poisson solver: FastPoissonSolver using
    Stencil: 8*3+1=25 point O(h^6) finite-difference Laplacian
    FFT axes: [0, 1]
    FST axes: [2]

Dipole correction along z-axis 

XC parameters: BEEF-vdW with 2 nearest neighbor stencil

Memory estimate:
  Process memory now: 231.03 MiB
  Calculator: 312.61 MiB
    Density: 101.59 MiB
      Arrays: 40.94 MiB
      Localized functions: 45.01 MiB
      Mixer: 15.64 MiB
    Hamiltonian: 30.33 MiB
      Arrays: 26.77 MiB
      XC: 0.00 MiB
      Poisson: 0.00 MiB
      vbar: 3.56 MiB
    Wavefunctions: 180.69 MiB
      Arrays psit_nG: 81.35 MiB
      Eigensolver: 97.10 MiB
      Projections: 0.02 MiB
      Projectors: 2.22 MiB

Total number of cores used: 24
Parallelization over k-points: 6
Domain decomposition: 1 x 2 x 2

Number of atoms: 36
Number of atomic orbitals: 144
Number of bands in calculation: 26
Number of valence electrons: 36
Bands to converge: occupied

... initialized

Initializing position-dependent things.

Density initialized from atomic densities
Creating initial wave functions:
  26 bands from LCAO basis set

                                                              
                                                              
                                                              
                                                              
                                                              
                       LiLi       LiLi        Lii             
                                                              
                 Li         LiLi       LiLi         Li        
               Li         Li          Li                      
                      Lii        Lii        LiLi              
       LiLi       LiLi        Lii                             
              Lii        Lii        LiLi                      
                                                              
       Li         Li          Li                              
                                                              
                                                              
                                                              
                                                              

Positions:
   0 Li     0.000000    0.000000   10.000000    ( 0.0000,  0.0000,  0.0000)
   1 Li     4.573671    0.000000   10.000000    ( 0.0000,  0.0000,  0.0000)
   2 Li     9.147343    0.000000   10.000000    ( 0.0000,  0.0000,  0.0000)
   3 Li     2.286836    3.960916   10.000000    ( 0.0000,  0.0000,  0.0000)
   4 Li     6.860507    3.960916   10.000000    ( 0.0000,  0.0000,  0.0000)
   5 Li    11.434178    3.960916   10.000000    ( 0.0000,  0.0000,  0.0000)
   6 Li     4.573671    7.921831   10.000000    ( 0.0000,  0.0000,  0.0000)
   7 Li     9.147343    7.921831   10.000000    ( 0.0000,  0.0000,  0.0000)
   8 Li    13.721014    7.921831   10.000000    ( 0.0000,  0.0000,  0.0000)
   9 Li     2.286836    1.320305   10.933597    ( 0.0000,  0.0000,  0.0000)
  10 Li     6.860507    1.320305   10.933597    ( 0.0000,  0.0000,  0.0000)
  11 Li    11.434178    1.320305   10.933597    ( 0.0000,  0.0000,  0.0000)
  12 Li     4.573671    5.281221   10.933597    ( 0.0000,  0.0000,  0.0000)
  13 Li     9.147343    5.281221   10.933597    ( 0.0000,  0.0000,  0.0000)
  14 Li    13.721014    5.281221   10.933597    ( 0.0000,  0.0000,  0.0000)
  15 Li     6.860507    9.242136   10.933597    ( 0.0000,  0.0000,  0.0000)
  16 Li    11.434178    9.242136   10.933597    ( 0.0000,  0.0000,  0.0000)
  17 Li    16.007850    9.242136   10.933597    ( 0.0000,  0.0000,  0.0000)
  18 Li     0.000000    2.640610   11.867193    ( 0.0000,  0.0000,  0.0000)
  19 Li     4.573671    2.640610   11.867193    ( 0.0000,  0.0000,  0.0000)
  20 Li     9.147343    2.640610   11.867193    ( 0.0000,  0.0000,  0.0000)
  21 Li     2.286836    6.601526   11.867193    ( 0.0000,  0.0000,  0.0000)
  22 Li     6.860507    6.601526   11.867193    ( 0.0000,  0.0000,  0.0000)
  23 Li    11.434178    6.601526   11.867193    ( 0.0000,  0.0000,  0.0000)
  24 Li     4.573671   10.562441   11.867193    ( 0.0000,  0.0000,  0.0000)
  25 Li     9.147343   10.562441   11.867193    ( 0.0000,  0.0000,  0.0000)
  26 Li    13.721014   10.562441   11.867193    ( 0.0000,  0.0000,  0.0000)
  27 Li     0.000000    0.000000   12.800790    ( 0.0000,  0.0000,  0.0000)
  28 Li     4.573671    0.000000   12.800790    ( 0.0000,  0.0000,  0.0000)
  29 Li     9.147343    0.000000   12.800790    ( 0.0000,  0.0000,  0.0000)
  30 Li     2.286836    3.960916   12.800790    ( 0.0000,  0.0000,  0.0000)
  31 Li     6.860507    3.960916   12.800790    ( 0.0000,  0.0000,  0.0000)
  32 Li    11.434178    3.960916   12.800790    ( 0.0000,  0.0000,  0.0000)
  33 Li     4.573671    7.921831   12.800790    ( 0.0000,  0.0000,  0.0000)
  34 Li     9.147343    7.921831   12.800790    ( 0.0000,  0.0000,  0.0000)
  35 Li    13.721014    7.921831   12.800790    ( 0.0000,  0.0000,  0.0000)

Unit cell:
           periodic     x           y           z      points  spacing
  1. axis:    yes   13.721014    0.000000    0.000000    76     0.1564
  2. axis:    yes    6.860507   11.882747    0.000000    76     0.1564
  3. axis:    no     0.000000    0.000000   22.800790   144     0.1583

  Lengths:  13.721014  13.721014  22.800790
  Angles:   90.000000  90.000000  60.000000

Effective grid spacing dv^(1/3) = 0.1647

     iter     time        total  log10-change:
                         energy  eigst   dens
iter:   1 01:13:43  -193.039832
iter:   2 01:16:37  -192.211152  +0.36  -0.47
iter:   3 01:19:34  -188.162173  +1.24  -0.50
iter:   4 01:22:23  -187.651637  +0.00  -0.86
Writing to output.gpw (mode='')

iter:   5 01:25:19  -187.543892  -0.75  -1.05
iter:   6 01:28:13  -188.621432  +0.55  -1.16
iter:   7 01:31:04  -187.437474  -0.14  -0.82
iter:   8 01:33:54  -187.458177  -1.10  -1.59
iter:   9 01:36:45  -187.453794  -1.06  -1.52
Writing to output.gpw (mode='')

iter:  10 01:39:36  -187.449093c -0.71  -1.67
iter:  11 01:42:30  -187.470117  -0.61  -2.17
iter:  12 01:45:21  -187.469878  -1.36  -1.93
iter:  13 01:48:09  -187.470491c -1.70  -1.95
iter:  14 01:51:00  -187.471510c -1.96  -1.96
Writing to output.gpw (mode='')

iter:  15 01:53:53  -187.465550c -2.28  -1.93
iter:  16 01:56:45  -187.463609c -1.78  -2.09
iter:  17 01:59:28  -187.466118c -1.99  -2.37
iter:  18 02:02:14  -187.464144c -2.74  -2.21
iter:  19 02:05:13  -187.463098c -2.67  -2.40
Writing to output.gpw (mode='')

iter:  20 02:08:06  -187.463088c -2.68  -2.82
iter:  21 02:11:01  -187.463159c -2.82  -3.09
iter:  22 02:13:52  -187.463248c -3.06  -3.21
iter:  23 02:16:46  -187.463314c -3.16  -3.36
iter:  24 02:19:41  -187.463415c -3.23  -3.32
Writing to output.gpw (mode='')

iter:  25 02:22:30  -187.463445c -3.33  -3.37
iter:  26 02:25:20  -187.463398c -3.40  -3.38
iter:  27 02:28:16  -187.463434c -3.48  -3.63
iter:  28 02:31:03  -187.463456c -3.54  -3.66
iter:  29 02:33:54  -187.463463c -3.60  -3.68
Writing to output.gpw (mode='')

iter:  30 02:36:43  -187.463495c -3.66  -3.88
iter:  31 02:39:36  -187.463488c -3.72  -3.85
iter:  32 02:42:34  -187.463503c -3.79  -3.92
iter:  33 02:45:20  -187.463511c -3.84  -3.78
iter:  34 02:48:08  -187.463515c -3.90  -3.99
Writing to output.gpw (mode='')

iter:  35 02:51:13  -187.463515c -3.96  -3.93
iter:  36 02:54:02  -187.463513c -4.01  -4.02c
iter:  37 02:56:57  -187.463520c -4.06  -4.09c
iter:  38 02:59:46  -187.463519c -4.11  -3.98
iter:  39 03:02:37  -187.463527c -4.15  -3.96
Writing to output.gpw (mode='')

iter:  40 03:05:30  -187.463517c -4.20  -3.93
iter:  41 03:08:20  -187.463514c -4.24  -4.09c
iter:  42 03:11:11  -187.463512c -4.29  -4.13c
iter:  43 03:14:04  -187.463520c -4.32  -4.17c
iter:  44 03:16:52  -187.463515c -4.38  -4.11c
Writing to output.gpw (mode='')

iter:  45 03:19:58  -187.463507c -4.41  -4.21c
iter:  46 03:22:45  -187.463512c -4.45  -4.40c
iter:  47 03:25:29  -187.463508c -4.41  -4.34c
iter:  48 03:28:17  -187.463500c -4.56  -4.51c
iter:  49 03:31:05  -187.463502c -4.62  -4.44c
Writing to output.gpw (mode='')

iter:  50 03:33:57  -187.463503c -4.66  -4.63c
iter:  51 03:36:49  -187.463500c -4.68  -4.77c
iter:  52 03:39:41  -187.463498c -4.70  -4.85c
iter:  53 03:42:32  -187.463498c -4.72  -4.88c
iter:  54 03:45:20  -187.463497c -4.60  -4.98c
Writing to output.gpw (mode='')

iter:  55 03:48:11  -187.463496c -4.80  -5.05c
iter:  56 03:50:57  -187.463495c -4.93  -5.08c
iter:  57 03:53:36  -187.463494c -5.00  -5.18c
iter:  58 03:56:27  -187.463494c -5.03  -5.24c
iter:  59 03:59:20  -187.463492c -5.06  -5.23c
Writing to output.gpw (mode='')

iter:  60 04:02:11  -187.463492c -5.06  -5.35c
iter:  61 04:04:55  -187.463491c -5.08  -5.51c
iter:  62 04:07:45  -187.463490c -5.17  -5.54c
iter:  63 04:10:31  -187.463490c -5.19  -5.62c
iter:  64 04:13:21  -187.463489c -5.24  -5.87c
Writing to output.gpw (mode='')

iter:  65 04:16:17  -187.463489c -5.28  -5.90c
iter:  66 04:19:01  -187.463488c -5.32  -5.82c
iter:  67 04:21:55  -187.463488c -5.34  -5.66c
iter:  68 04:24:43  -187.463487c -5.38  -5.64c
iter:  69 04:27:29  -187.463487c -5.40  -5.54c
Writing to output.gpw (mode='')

iter:  70 04:30:16  -187.463486c -5.42  -5.44c
iter:  71 04:33:08  -187.463486c -5.46  -5.38c
iter:  72 04:36:05  -187.463485c -5.49  -5.35c
iter:  73 04:38:58  -187.463485c -5.52  -5.29c
iter:  74 04:41:39  -187.463485c -5.55  -5.27c
Writing to output.gpw (mode='')

iter:  75 04:44:26  -187.463484c -5.59  -5.18c
iter:  76 04:47:16  -187.463484c -5.61  -5.23c
iter:  77 04:50:04  -187.463484c -5.66  -5.15c
iter:  78 04:52:59  -187.463483c -5.69  -5.11c
iter:  79 04:55:43  -187.463483c -5.71  -5.22c
Writing to output.gpw (mode='')

iter:  80 04:58:34  -187.463482c -5.74  -5.13c
iter:  81 05:01:28  -187.463482c -5.79  -5.29c
iter:  82 05:04:14  -187.463482c -5.81  -5.39c
iter:  83 05:07:05  -187.463481c -5.79  -5.40c
iter:  84 05:10:02  -187.463481c -5.85  -5.47c
Writing to output.gpw (mode='')

iter:  85 05:12:50  -187.463481c -5.90  -5.38c
iter:  86 05:15:41  -187.463481c -5.90  -5.55c
iter:  87 05:18:36  -187.463480c -5.80  -5.58c
iter:  88 05:21:22  -187.463480c -5.98  -5.65c
iter:  89 05:24:10  -187.463480c -6.04  -5.78c
Writing to output.gpw (mode='')

iter:  90 05:26:51  -187.463480c -6.04  -5.89c
iter:  91 05:29:48  -187.463480c -6.01  -5.93c
iter:  92 05:32:41  -187.463480c -6.14  -6.00c
iter:  93 05:35:38  -187.463479c -6.17  -6.11c
iter:  94 05:38:23  -187.463479c -6.23  -6.24c
Writing to output.gpw (mode='')

iter:  95 05:41:09  -187.463479c -6.24  -6.26c
iter:  96 05:44:01  -187.463479c -6.25  -6.29c
iter:  97 05:46:59  -187.463479c -6.26  -6.35c
iter:  98 05:49:44  -187.463479c -6.30  -6.39c
iter:  99 05:52:35  -187.463479c -6.31  -6.62c
Writing to output.gpw (mode='')

iter: 100 05:55:22  -187.463478c -6.36  -6.64c
iter: 101 05:58:18  -187.463478c -6.42  -6.46c
iter: 102 06:01:14  -187.463478c -6.43  -6.27c
iter: 103 06:04:01  -187.463478c -6.48  -6.28c
iter: 104 06:06:46  -187.463478c -6.49  -6.14c
Writing to output.gpw (mode='')

iter: 105 06:09:32  -187.463478c -6.54  -6.12c
iter: 106 06:12:13  -187.463478c -6.55  -6.07c
iter: 107 06:15:03  -187.463478c -6.58  -5.99c
iter: 108 06:17:44  -187.463478c -6.61  -5.96c
iter: 109 06:20:30  -187.463478c -6.63  -5.88c
Writing to output.gpw (mode='')

iter: 110 06:23:25  -187.463478c -6.66  -5.89c
iter: 111 06:26:13  -187.463478c -6.68  -5.85c
iter: 112 06:29:05  -187.463478c -6.72  -5.82c
iter: 113 06:31:54  -187.463478c -6.79  -5.83c
iter: 114 06:34:44  -187.463478c -6.81  -5.75c
Writing to output.gpw (mode='')

iter: 115 06:37:36  -187.463477c -6.72  -5.74c
iter: 116 06:40:30  -187.463477c -6.82  -5.73c
iter: 117 06:43:12  -187.463477c -6.86  -5.75c
iter: 118 06:46:12  -187.463477c -6.92  -5.78c
iter: 119 06:49:04  -187.463477c -6.93  -5.77c
Writing to output.gpw (mode='')

iter: 120 06:52:00  -187.463477c -6.94  -5.66c
iter: 121 06:54:49  -187.463477c -6.99  -5.89c
iter: 122 06:57:38  -187.463477c -6.99  -5.95c
iter: 123 07:00:33  -187.463477c -7.08  -5.97c
iter: 124 07:03:36  -187.463477c -7.13  -6.30c
Writing to output.gpw (mode='')

iter: 125 07:06:27  -187.463477c -7.17  -6.43c
iter: 126 07:09:19  -187.463477c -7.12  -6.41c
iter: 127 07:12:08  -187.463477c -7.13  -6.14c
iter: 128 07:15:13  -187.463477c -7.24  -6.17c
iter: 129 07:18:05  -187.463477c -7.28  -6.27c
Writing to output.gpw (mode='')

iter: 130 07:20:49  -187.463477c -7.23  -6.49c
iter: 131 07:23:48  -187.463477c -7.28  -6.58c
iter: 132 07:26:38  -187.463477c -7.34  -6.54c
iter: 133 07:29:25  -187.463477c -7.38  -6.60c
iter: 134 07:32:25  -187.463477c -7.43c -6.66c

Converged after 134 iterations.

Dipole moment: (-6.154106, -3.553075, 0.000000) |e|*Ang

Energy contributions relative to reference atoms: (reference = -7300.361529)

Kinetic:        +71.885966
Potential:      -58.406097
External:        +0.000000
XC:            -200.698389
Entropy (-ST):   -0.123095
Local:           -0.183409
--------------------------
Free energy:   -187.525024
Extrapolated:  -187.463477

Dipole-layer corrected work functions: 3.350936, 3.350936 eV

Showing only first 2 kpts
 Kpt  Band  Eigenvalues  Occupancy
  0    16     -3.55926    1.96946
  0    17     -3.42001    1.59843
  0    18     -3.42000    1.59842
  0    19     -3.37901    1.27358

  1    16     -3.51579    1.92865
  1    17     -3.51578    1.92864
  1    18     -3.47025    1.83154
  1    19     -3.47024    1.83151


Fermi level: -3.35094

No gap
Writing to output.gpw (mode='')


Forces in eV/Ang:
  0 Li    0.00000    0.00000   -0.22448
  1 Li    0.00003   -0.00001   -0.22439
  2 Li   -0.00003   -0.00001   -0.22439
  3 Li    0.00001    0.00003   -0.22439
  4 Li   -0.00000   -0.00000   -0.22425
  5 Li   -0.00001    0.00003   -0.22439
  6 Li   -0.00002   -0.00003   -0.22439
  7 Li    0.00002   -0.00003   -0.22439
  8 Li    0.00000    0.00000   -0.22425
  9 Li   -0.00021   -0.00012    0.20876
 10 Li    0.00000    0.00035    0.20874
 11 Li    0.00021   -0.00012    0.20876
 12 Li    0.00030   -0.00018    0.20874
 13 Li   -0.00030   -0.00018    0.20874
 14 Li    0.00000    0.00034    0.20871
 15 Li    0.00000    0.00024    0.20876
 16 Li    0.00030   -0.00017    0.20871
 17 Li   -0.00030   -0.00017    0.20871
 18 Li    0.00000   -0.00024   -0.20876
 19 Li    0.00030    0.00017   -0.20871
 20 Li   -0.00030    0.00017   -0.20871
 21 Li   -0.00030    0.00018   -0.20874
 22 Li    0.00000   -0.00034   -0.20871
 23 Li    0.00030    0.00018   -0.20874
 24 Li    0.00021    0.00012   -0.20876
 25 Li   -0.00021    0.00012   -0.20876
 26 Li    0.00000   -0.00035   -0.20874
 27 Li    0.00000   -0.00000    0.22448
 28 Li    0.00003    0.00001    0.22439
 29 Li   -0.00003    0.00001    0.22439
 30 Li    0.00002    0.00003    0.22439
 31 Li   -0.00000    0.00000    0.22425
 32 Li   -0.00002    0.00003    0.22439
 33 Li   -0.00001   -0.00003    0.22439
 34 Li    0.00001   -0.00003    0.22439
 35 Li   -0.00000    0.00000    0.22425

System changes: positions 

Initializing position-dependent things.

Density initialized from wave functions
                                                              
                                                              
                                                              
                                                              
                                                              
                       LiLi       LiLi        Lii             
                                                              
                 Li         LiLi       LiLi         Li        
               Li         Li          Li                      
                      Lii        Lii        LiLi              
       LiLi       LiLi        Lii                             
              Lii        Lii        LiLi                      
                                                              
       Li         Li          Li                              
                                                              
                                                              
                                                              
                                                              

Positions:
   0 Li     0.000000    0.000000    9.996793    ( 0.0000,  0.0000,  0.0000)
   1 Li     4.573672   -0.000000    9.996794    ( 0.0000,  0.0000,  0.0000)
   2 Li     9.147342   -0.000000    9.996794    ( 0.0000,  0.0000,  0.0000)
   3 Li     2.286836    3.960916    9.996794    ( 0.0000,  0.0000,  0.0000)
   4 Li     6.860507    3.960916    9.996796    ( 0.0000,  0.0000,  0.0000)
   5 Li    11.434178    3.960916    9.996794    ( 0.0000,  0.0000,  0.0000)
   6 Li     4.573671    7.921831    9.996794    ( 0.0000,  0.0000,  0.0000)
   7 Li     9.147343    7.921831    9.996794    ( 0.0000,  0.0000,  0.0000)
   8 Li    13.721014    7.921831    9.996796    ( 0.0000,  0.0000,  0.0000)
   9 Li     2.286833    1.320303   10.936579    ( 0.0000,  0.0000,  0.0000)
  10 Li     6.860507    1.320310   10.936579    ( 0.0000,  0.0000,  0.0000)
  11 Li    11.434181    1.320303   10.936579    ( 0.0000,  0.0000,  0.0000)
  12 Li     4.573676    5.281218   10.936579    ( 0.0000,  0.0000,  0.0000)
  13 Li     9.147338    5.281218   10.936579    ( 0.0000,  0.0000,  0.0000)
  14 Li    13.721014    5.281226   10.936578    ( 0.0000,  0.0000,  0.0000)
  15 Li     6.860507    9.242140   10.936579    ( 0.0000,  0.0000,  0.0000)
  16 Li    11.434183    9.242134   10.936578    ( 0.0000,  0.0000,  0.0000)
  17 Li    16.007845    9.242134   10.936578    ( 0.0000,  0.0000,  0.0000)
  18 Li     0.000000    2.640607   11.864211    ( 0.0000,  0.0000,  0.0000)
  19 Li     4.573676    2.640613   11.864212    ( 0.0000,  0.0000,  0.0000)
  20 Li     9.147338    2.640613   11.864212    ( 0.0000,  0.0000,  0.0000)
  21 Li     2.286831    6.601528   11.864212    ( 0.0000,  0.0000,  0.0000)
  22 Li     6.860507    6.601521   11.864212    ( 0.0000,  0.0000,  0.0000)
  23 Li    11.434183    6.601528   11.864212    ( 0.0000,  0.0000,  0.0000)
  24 Li     4.573674   10.562443   11.864211    ( 0.0000,  0.0000,  0.0000)
  25 Li     9.147340   10.562443   11.864211    ( 0.0000,  0.0000,  0.0000)
  26 Li    13.721014   10.562436   11.864212    ( 0.0000,  0.0000,  0.0000)
  27 Li     0.000000   -0.000000   12.803997    ( 0.0000,  0.0000,  0.0000)
  28 Li     4.573672    0.000000   12.803996    ( 0.0000,  0.0000,  0.0000)
  29 Li     9.147342    0.000000   12.803996    ( 0.0000,  0.0000,  0.0000)
  30 Li     2.286836    3.960916   12.803996    ( 0.0000,  0.0000,  0.0000)
  31 Li     6.860507    3.960916   12.803994    ( 0.0000,  0.0000,  0.0000)
  32 Li    11.434178    3.960916   12.803996    ( 0.0000,  0.0000,  0.0000)
  33 Li     4.573671    7.921831   12.803996    ( 0.0000,  0.0000,  0.0000)
  34 Li     9.147343    7.921831   12.803996    ( 0.0000,  0.0000,  0.0000)
  35 Li    13.721014    7.921831   12.803994    ( 0.0000,  0.0000,  0.0000)

Unit cell:
           periodic     x           y           z      points  spacing
  1. axis:    yes   13.721014    0.000000    0.000000    76     0.1564
  2. axis:    yes    6.860507   11.882747    0.000000    76     0.1564
  3. axis:    no     0.000000    0.000000   22.800790   144     0.1583

  Lengths:  13.721014  13.721014  22.800790
  Angles:   90.000000  90.000000  60.000000

Effective grid spacing dv^(1/3) = 0.1647

     iter     time        total  log10-change:
                         energy  eigst   dens
iter:   1 07:35:32  -187.487399  -2.57
iter:   2 07:38:32  -187.487459  -3.57  -3.34
iter:   3 07:41:27  -187.487473c -3.97  -3.22
iter:   4 07:44:24  -187.487487c -4.88  -3.09
Writing to output.gpw (mode='')

iter:   5 07:47:26  -187.487512c -5.08  -3.21
iter:   6 07:50:14  -187.487512c -5.62  -3.46
iter:   7 07:53:05  -187.487517c -5.54  -3.48
iter:   8 07:55:55  -187.487510c -5.33  -3.56
iter:   9 07:58:41  -187.487535c -5.00  -3.53
Writing to output.gpw (mode='')

iter:  10 08:01:40  -187.487532c -5.61  -4.05c
iter:  11 08:04:47  -187.487544c -5.18  -4.07c
iter:  12 08:07:39  -187.487543c -5.68  -4.12c
iter:  13 08:10:34  -187.487545c -5.78  -4.07c
iter:  14 08:13:45  -187.487543c -6.34  -3.98
Writing to output.gpw (mode='')

iter:  15 08:16:38  -187.487542c -6.60  -4.01c
iter:  16 08:19:34  -187.487540c -6.79  -4.03c
iter:  17 08:22:23  -187.487539c -6.82  -4.06c
iter:  18 08:25:17  -187.487526c -5.98  -4.10c
iter:  19 08:28:21  -187.487534c -6.67  -4.35c
Writing to output.gpw (mode='')

iter:  20 08:31:05  -187.487531c -6.86  -4.39c
iter:  21 08:33:50  -187.487527c -6.53  -4.56c
iter:  22 08:36:39  -187.487531c -7.09  -4.57c
iter:  23 08:39:29  -187.487526c -6.66  -4.74c
iter:  24 08:42:27  -187.487529c -7.13  -4.50c
Writing to output.gpw (mode='')

iter:  25 08:45:14  -187.487530c -7.08  -5.00c
iter:  26 08:48:05  -187.487529c -7.43c -5.11c

Converged after 26 iterations.

Dipole moment: (-6.154301, -3.553187, -0.000000) |e|*Ang

Energy contributions relative to reference atoms: (reference = -7300.361529)

Kinetic:        +71.658006
Potential:      -58.264911
External:        +0.000000
XC:            -200.636123
Entropy (-ST):   -0.122836
Local:           -0.183083
--------------------------
Free energy:   -187.548947
Extrapolated:  -187.487529

Dipole-layer corrected work functions: 3.348525, 3.348525 eV

Showing only first 2 kpts
 Kpt  Band  Eigenvalues  Occupancy
  0    16     -3.55524    1.96848
  0    17     -3.41850    1.60423
  0    18     -3.41850    1.60422
  0    19     -3.37533    1.26184

  1    16     -3.51499    1.93084
  1    17     -3.51498    1.93083
  1    18     -3.46738    1.83013
  1    19     -3.46737    1.83009


Fermi level: -3.34853

No gap
Writing to output.gpw (mode='')


Forces in eV/Ang:
  0 Li   -0.00000   -0.00000   -0.21910
  1 Li    0.00003   -0.00001   -0.21900
  2 Li   -0.00003   -0.00001   -0.21900
  3 Li    0.00001    0.00003   -0.21900
  4 Li   -0.00000    0.00000   -0.21890
  5 Li   -0.00001    0.00003   -0.21900
  6 Li   -0.00002   -0.00002   -0.21900
  7 Li    0.00002   -0.00002   -0.21900
  8 Li    0.00000   -0.00000   -0.21890
  9 Li   -0.00020   -0.00012    0.20618
 10 Li   -0.00000    0.00033    0.20617
 11 Li    0.00020   -0.00012    0.20618
 12 Li    0.00029   -0.00017    0.20617
 13 Li   -0.00029   -0.00017    0.20617
 14 Li    0.00000    0.00034    0.20611
 15 Li    0.00000    0.00023    0.20618
 16 Li    0.00029   -0.00017    0.20611
 17 Li   -0.00029   -0.00017    0.20611
 18 Li    0.00000   -0.00023   -0.20618
 19 Li    0.00029    0.00017   -0.20611
 20 Li   -0.00029    0.00017   -0.20611
 21 Li   -0.00029    0.00017   -0.20617
 22 Li    0.00000   -0.00034   -0.20611
 23 Li    0.00029    0.00017   -0.20617
 24 Li    0.00020    0.00012   -0.20618
 25 Li   -0.00020    0.00012   -0.20618
 26 Li    0.00000   -0.00033   -0.20617
 27 Li    0.00000    0.00000    0.21910
 28 Li    0.00003    0.00001    0.21900
 29 Li   -0.00003    0.00001    0.21900
 30 Li    0.00002    0.00002    0.21900
 31 Li    0.00000    0.00000    0.21890
 32 Li   -0.00002    0.00002    0.21900
 33 Li   -0.00001   -0.00003    0.21900
 34 Li    0.00001   -0.00003    0.21900
 35 Li    0.00000    0.00000    0.21890

System changes: positions 

Initializing position-dependent things.

Density initialized from wave functions
                                                              
                                                              
                                                              
                                                              
                                                              
                       LiLi       LiLi        Lii             
                                                              
                 Li         LiLi       LiLi         Li        
               Li         Li          Li                      
                      Lii        Lii        LiLi              
       LiLi       LiLi        Lii                             
              Lii        Lii        LiLi                      
                                                              
       Li         Li          Li                              
                                                              
                                                              
                                                              
                                                              

Positions:
   0 Li    -0.000000    0.000000    9.986793    ( 0.0000,  0.0000,  0.0000)
   1 Li     4.573673   -0.000000    9.986799    ( 0.0000,  0.0000,  0.0000)
   2 Li     9.147341   -0.000000    9.986799    ( 0.0000,  0.0000,  0.0000)
   3 Li     2.286836    3.960917    9.986799    ( 0.0000,  0.0000,  0.0000)
   4 Li     6.860507    3.960916    9.986806    ( 0.0000,  0.0000,  0.0000)
   5 Li    11.434178    3.960917    9.986799    ( 0.0000,  0.0000,  0.0000)
   6 Li     4.573670    7.921830    9.986799    ( 0.0000,  0.0000,  0.0000)
   7 Li     9.147344    7.921830    9.986799    ( 0.0000,  0.0000,  0.0000)
   8 Li    13.721014    7.921831    9.986806    ( 0.0000,  0.0000,  0.0000)
   9 Li     2.286823    1.320298   10.945989    ( 0.0000,  0.0000,  0.0000)
  10 Li     6.860507    1.320325   10.945988    ( 0.0000,  0.0000,  0.0000)
  11 Li    11.434190    1.320298   10.945989    ( 0.0000,  0.0000,  0.0000)
  12 Li     4.573689    5.281211   10.945988    ( 0.0000,  0.0000,  0.0000)
  13 Li     9.147325    5.281211   10.945988    ( 0.0000,  0.0000,  0.0000)
  14 Li    13.721014    5.281241   10.945985    ( 0.0000,  0.0000,  0.0000)
  15 Li     6.860507    9.242150   10.945989    ( 0.0000,  0.0000,  0.0000)
  16 Li    11.434196    9.242126   10.945985    ( 0.0000,  0.0000,  0.0000)
  17 Li    16.007832    9.242126   10.945985    ( 0.0000,  0.0000,  0.0000)
  18 Li    -0.000000    2.640596   11.854801    ( 0.0000,  0.0000,  0.0000)
  19 Li     4.573689    2.640621   11.854805    ( 0.0000,  0.0000,  0.0000)
  20 Li     9.147325    2.640621   11.854805    ( 0.0000,  0.0000,  0.0000)
  21 Li     2.286818    6.601536   11.854802    ( 0.0000,  0.0000,  0.0000)
  22 Li     6.860507    6.601506   11.854805    ( 0.0000,  0.0000,  0.0000)
  23 Li    11.434196    6.601536   11.854802    ( 0.0000,  0.0000,  0.0000)
  24 Li     4.573684   10.562448   11.854801    ( 0.0000,  0.0000,  0.0000)
  25 Li     9.147330   10.562448   11.854801    ( 0.0000,  0.0000,  0.0000)
  26 Li    13.721014   10.562421   11.854802    ( 0.0000,  0.0000,  0.0000)
  27 Li    -0.000000   -0.000000   12.813997    ( 0.0000,  0.0000,  0.0000)
  28 Li     4.573673    0.000000   12.813991    ( 0.0000,  0.0000,  0.0000)
  29 Li     9.147341    0.000000   12.813991    ( 0.0000,  0.0000,  0.0000)
  30 Li     2.286837    3.960917   12.813991    ( 0.0000,  0.0000,  0.0000)
  31 Li     6.860507    3.960916   12.813985    ( 0.0000,  0.0000,  0.0000)
  32 Li    11.434177    3.960917   12.813991    ( 0.0000,  0.0000,  0.0000)
  33 Li     4.573671    7.921829   12.813991    ( 0.0000,  0.0000,  0.0000)
  34 Li     9.147343    7.921829   12.813991    ( 0.0000,  0.0000,  0.0000)
  35 Li    13.721014    7.921831   12.813985    ( 0.0000,  0.0000,  0.0000)

Unit cell:
           periodic     x           y           z      points  spacing
  1. axis:    yes   13.721014    0.000000    0.000000    76     0.1564
  2. axis:    yes    6.860507   11.882747    0.000000    76     0.1564
  3. axis:    no     0.000000    0.000000   22.800790   144     0.1583

  Lengths:  13.721014  13.721014  22.800790
  Angles:   90.000000  90.000000  60.000000

Effective grid spacing dv^(1/3) = 0.1647

     iter     time        total  log10-change:
                         energy  eigst   dens
iter:   1 08:51:16  -187.559374  -1.58
iter:   2 08:54:09  -187.559937  -2.58  -2.85
iter:   3 08:57:02  -187.560179c -2.98  -2.73
iter:   4 09:00:07  -187.560046c -3.89  -2.59
Writing to output.gpw (mode='')

iter:   5 09:03:08  -187.559994c -4.08  -2.72
iter:   6 09:06:06  -187.559998c -4.63  -2.97
iter:   7 09:09:08  -187.560003c -4.75  -2.99
iter:   8 09:12:09  -187.560084c -3.86  -3.02
iter:   9 09:15:16  -187.560154c -3.86  -3.23
Writing to output.gpw (mode='')

iter:  10 09:18:09  -187.560003c -3.79  -3.13
iter:  11 09:20:59  -187.560052c -4.43  -2.97
iter:  12 09:23:49  -187.560113c -4.05  -3.54
iter:  13 09:26:44  -187.560083c -5.17  -3.43
iter:  14 09:29:39  -187.560059c -5.53  -3.60
Writing to output.gpw (mode='')

iter:  15 09:32:31  -187.560079c -5.35  -3.77
iter:  16 09:35:20  -187.560065c -5.72  -3.61
iter:  17 09:38:12  -187.560030c -5.14  -3.74
iter:  18 09:41:12  -187.560037c -5.91  -4.06c
iter:  19 09:44:09  -187.560030c -5.53  -4.19c
Writing to output.gpw (mode='')

iter:  20 09:47:06  -187.560032c -6.04  -3.98
iter:  21 09:50:04  -187.560035c -6.41  -4.00c
iter:  22 09:52:56  -187.560041c -6.29  -4.04c
iter:  23 09:55:48  -187.560043c -6.36  -4.21c
iter:  24 09:58:39  -187.560043c -6.46  -4.25c
Writing to output.gpw (mode='')

iter:  25 10:01:39  -187.560041c -6.57  -4.28c
iter:  26 10:04:34  -187.560043c -6.61  -4.29c
iter:  27 10:07:29  -187.560047c -6.41  -4.35c
iter:  28 10:10:24  -187.560042c -6.59  -4.33c
iter:  29 10:13:10  -187.560043c -6.83  -4.44c
Writing to output.gpw (mode='')

iter:  30 10:16:14  -187.560043c -6.81  -4.53c
iter:  31 10:19:06  -187.560044c -6.78  -4.59c
iter:  32 10:21:56  -187.560046c -6.63  -4.64c
iter:  33 10:24:44  -187.560046c -6.88  -4.68c
iter:  34 10:27:30  -187.560046c -7.00  -4.70c
Writing to output.gpw (mode='')

iter:  35 10:30:25  -187.560043c -6.95  -4.69c
iter:  36 10:33:12  -187.560043c -7.06  -5.13c
iter:  37 10:36:06  -187.560043c -7.11  -5.22c
iter:  38 10:38:53  -187.560043c -7.15  -5.39c
iter:  39 10:41:49  -187.560043c -7.19  -5.55c
Writing to output.gpw (mode='')

iter:  40 10:44:41  -187.560043c -7.20  -5.64c
iter:  41 10:47:32  -187.560043c -7.17  -5.67c
iter:  42 10:50:24  -187.560043c -7.23  -5.72c
iter:  43 10:53:32  -187.560043c -7.25  -5.85c
iter:  44 10:56:31  -187.560043c -7.24  -5.95c
Writing to output.gpw (mode='')

iter:  45 10:59:17  -187.560043c -7.19  -6.01c
iter:  46 11:02:10  -187.560043c -7.25  -6.19c
iter:  47 11:05:09  -187.560043c -7.25  -6.33c
iter:  48 11:08:06  -187.560043c -7.26  -6.30c
iter:  49 11:11:04  -187.560043c -7.18  -6.22c
Writing to output.gpw (mode='')

iter:  50 11:13:58  -187.560043c -7.25  -6.25c
iter:  51 11:16:46  -187.560042c -7.26  -6.05c
iter:  52 11:19:46  -187.560043c -7.29  -6.19c
iter:  53 11:22:35  -187.560042c -7.27  -6.02c
iter:  54 11:25:21  -187.560042c -7.26  -6.07c
Writing to output.gpw (mode='')

iter:  55 11:28:08  -187.560042c -7.26  -6.05c
iter:  56 11:30:56  -187.560042c -7.31  -6.11c
iter:  57 11:33:50  -187.560042c -7.30  -6.23c
iter:  58 11:36:38  -187.560042c -7.27  -6.26c
iter:  59 11:39:23  -187.560042c -7.33  -6.30c
Writing to output.gpw (mode='')

iter:  60 11:42:16  -187.560042c -7.35  -6.43c
iter:  61 11:45:07  -187.560042c -7.33  -6.60c
iter:  62 11:47:57  -187.560042c -7.34  -6.58c
iter:  63 11:50:49  -187.560042c -7.34  -6.55c
iter:  64 11:53:39  -187.560042c -7.32  -6.57c
Writing to output.gpw (mode='')

iter:  65 11:56:32  -187.560042c -7.38  -6.63c
iter:  66 11:59:15  -187.560042c -7.39  -6.72c
iter:  67 12:02:04  -187.560042c -7.44c -6.76c

Converged after 67 iterations.

Dipole moment: (-6.154934, -3.553553, 0.000000) |e|*Ang

Energy contributions relative to reference atoms: (reference = -7300.361529)

Kinetic:        +70.954126
Potential:      -57.828152
External:        +0.000000
XC:            -200.442912
Entropy (-ST):   -0.122055
Local:           -0.182076
--------------------------
Free energy:   -187.621069
Extrapolated:  -187.560042

Dipole-layer corrected work functions: 3.340811, 3.340811 eV

Showing only first 2 kpts
 Kpt  Band  Eigenvalues  Occupancy
  0    16     -3.54253    1.96522
  0    17     -3.41374    1.62260
  0    18     -3.41373    1.62258
  0    19     -3.36367    1.22469

  1    16     -3.51239    1.93735
  1    17     -3.51237    1.93734
  1    18     -3.45827    1.82574
  1    19     -3.45825    1.82569


Fermi level: -3.34081

No gap
Writing to output.gpw (mode='')


Forces in eV/Ang:
  0 Li   -0.00000   -0.00000   -0.20244
  1 Li    0.00005   -0.00001   -0.20234
  2 Li   -0.00005   -0.00001   -0.20234
  3 Li    0.00002    0.00005   -0.20234
  4 Li   -0.00000    0.00000   -0.20242
  5 Li   -0.00002    0.00005   -0.20234
  6 Li   -0.00003   -0.00004   -0.20234
  7 Li    0.00003   -0.00004   -0.20234
  8 Li   -0.00000   -0.00000   -0.20242
  9 Li   -0.00023   -0.00013    0.19809
 10 Li   -0.00000    0.00024    0.19807
 11 Li    0.00023   -0.00013    0.19809
 12 Li    0.00020   -0.00012    0.19807
 13 Li   -0.00020   -0.00012    0.19807
 14 Li   -0.00000    0.00027    0.19802
 15 Li    0.00000    0.00026    0.19809
 16 Li    0.00024   -0.00014    0.19802
 17 Li   -0.00024   -0.00014    0.19802
 18 Li    0.00000   -0.00026   -0.19809
 19 Li    0.00024    0.00014   -0.19802
 20 Li   -0.00024    0.00014   -0.19802
 21 Li   -0.00020    0.00012   -0.19807
 22 Li   -0.00000   -0.00027   -0.19802
 23 Li    0.00020    0.00012   -0.19807
 24 Li    0.00023    0.00013   -0.19809
 25 Li   -0.00023    0.00013   -0.19809
 26 Li   -0.00000   -0.00024   -0.19807
 27 Li   -0.00000    0.00000    0.20244
 28 Li    0.00005    0.00001    0.20234
 29 Li   -0.00005    0.00001    0.20234
 30 Li    0.00003    0.00004    0.20234
 31 Li    0.00000    0.00000    0.20242
 32 Li   -0.00003    0.00004    0.20234
 33 Li   -0.00002   -0.00005    0.20234
 34 Li    0.00002   -0.00005    0.20234
 35 Li   -0.00000    0.00000    0.20242

System changes: positions 

Initializing position-dependent things.

Density initialized from wave functions
                                                              
                                                              
                                                              
                                                              
                                                              
                       LiLi       LiLi        Lii             
                                                              
                 Li         LiLi       LiLi         Li        
               Li         Li          Li                      
                      Lii        Lii        LiLi              
       LiLi       LiLi        Lii                             
              Lii        Lii        LiLi                      
                                                              
       Li         Li          Li                              
                                                              
                                                              
                                                              
                                                              

Positions:
   0 Li    -0.000000    0.000000    9.976793    ( 0.0000,  0.0000,  0.0000)
   1 Li     4.573675   -0.000001    9.976803    ( 0.0000,  0.0000,  0.0000)
   2 Li     9.147339   -0.000001    9.976803    ( 0.0000,  0.0000,  0.0000)
   3 Li     2.286837    3.960919    9.976803    ( 0.0000,  0.0000,  0.0000)
   4 Li     6.860507    3.960916    9.976812    ( 0.0000,  0.0000,  0.0000)
   5 Li    11.434177    3.960919    9.976803    ( 0.0000,  0.0000,  0.0000)
   6 Li     4.573669    7.921828    9.976803    ( 0.0000,  0.0000,  0.0000)
   7 Li     9.147345    7.921828    9.976803    ( 0.0000,  0.0000,  0.0000)
   8 Li    13.721014    7.921831    9.976812    ( 0.0000,  0.0000,  0.0000)
   9 Li     2.286814    1.320292   10.955514    ( 0.0000,  0.0000,  0.0000)
  10 Li     6.860507    1.320339   10.955513    ( 0.0000,  0.0000,  0.0000)
  11 Li    11.434200    1.320292   10.955514    ( 0.0000,  0.0000,  0.0000)
  12 Li     4.573701    5.281204   10.955513    ( 0.0000,  0.0000,  0.0000)
  13 Li     9.147313    5.281204   10.955513    ( 0.0000,  0.0000,  0.0000)
  14 Li    13.721014    5.281256   10.955508    ( 0.0000,  0.0000,  0.0000)
  15 Li     6.860507    9.242162   10.955514    ( 0.0000,  0.0000,  0.0000)
  16 Li    11.434209    9.242119   10.955508    ( 0.0000,  0.0000,  0.0000)
  17 Li    16.007819    9.242119   10.955508    ( 0.0000,  0.0000,  0.0000)
  18 Li     0.000000    2.640585   11.845276    ( 0.0000,  0.0000,  0.0000)
  19 Li     4.573702    2.640628   11.845283    ( 0.0000,  0.0000,  0.0000)
  20 Li     9.147312    2.640628   11.845283    ( 0.0000,  0.0000,  0.0000)
  21 Li     2.286806    6.601543   11.845277    ( 0.0000,  0.0000,  0.0000)
  22 Li     6.860507    6.601491   11.845283    ( 0.0000,  0.0000,  0.0000)
  23 Li    11.434208    6.601543   11.845277    ( 0.0000,  0.0000,  0.0000)
  24 Li     4.573693   10.562454   11.845276    ( 0.0000,  0.0000,  0.0000)
  25 Li     9.147321   10.562454   11.845276    ( 0.0000,  0.0000,  0.0000)
  26 Li    13.721014   10.562407   11.845277    ( 0.0000,  0.0000,  0.0000)
  27 Li    -0.000000    0.000000   12.823997    ( 0.0000,  0.0000,  0.0000)
  28 Li     4.573675    0.000001   12.823987    ( 0.0000,  0.0000,  0.0000)
  29 Li     9.147339    0.000001   12.823987    ( 0.0000,  0.0000,  0.0000)
  30 Li     2.286838    3.960918   12.823987    ( 0.0000,  0.0000,  0.0000)
  31 Li     6.860507    3.960916   12.823978    ( 0.0000,  0.0000,  0.0000)
  32 Li    11.434176    3.960918   12.823987    ( 0.0000,  0.0000,  0.0000)
  33 Li     4.573670    7.921828   12.823987    ( 0.0000,  0.0000,  0.0000)
  34 Li     9.147344    7.921828   12.823987    ( 0.0000,  0.0000,  0.0000)
  35 Li    13.721014    7.921831   12.823978    ( 0.0000,  0.0000,  0.0000)

Unit cell:
           periodic     x           y           z      points  spacing
  1. axis:    yes   13.721014    0.000000    0.000000    76     0.1564
  2. axis:    yes    6.860507   11.882747    0.000000    76     0.1564
  3. axis:    no     0.000000    0.000000   22.800790   144     0.1583

  Lengths:  13.721014  13.721014  22.800790
  Angles:   90.000000  90.000000  60.000000

Effective grid spacing dv^(1/3) = 0.1647

     iter     time        total  log10-change:
                         energy  eigst   dens
iter:   1 12:05:15  -187.627938  -1.58
iter:   2 12:08:07  -187.628511  -2.57  -2.84
iter:   3 12:11:06  -187.628760c -2.97  -2.72
iter:   4 12:13:47  -187.628617c -3.90  -2.58
Writing to output.gpw (mode='')

iter:   5 12:16:41  -187.628562c -4.07  -2.71
iter:   6 12:19:34  -187.628566c -4.61  -2.97
iter:   7 12:22:29  -187.628573c -4.51  -2.99
iter:   8 12:25:20  -187.628620c -4.02  -3.07
iter:   9 12:28:09  -187.628663c -4.02  -3.61
Writing to output.gpw (mode='')

iter:  10 12:31:05  -187.628665c -4.41  -3.50
iter:  11 12:33:55  -187.628661c -4.74  -3.42
iter:  12 12:36:46  -187.628673c -4.74  -3.44
iter:  13 12:39:36  -187.628672c -5.02  -3.37
iter:  14 12:42:23  -187.628689c -4.97  -3.36
Writing to output.gpw (mode='')

iter:  15 12:45:18  -187.628637c -5.17  -3.26
iter:  16 12:48:11  -187.628616c -5.00  -3.49
iter:  17 12:51:09  -187.628616c -5.34  -3.57
iter:  18 12:54:01  -187.628627c -5.86  -3.59
iter:  19 12:56:58  -187.628621c -5.83  -3.61
Writing to output.gpw (mode='')

iter:  20 12:59:51  -187.628580c -5.01  -3.64
iter:  21 13:02:39  -187.628591c -5.83  -3.54
iter:  22 13:05:29  -187.628611c -5.38  -3.67
iter:  23 13:08:25  -187.628612c -5.83  -3.88
iter:  24 13:11:27  -187.628612c -5.91  -3.96
Writing to output.gpw (mode='')

iter:  25 13:14:29  -187.628601c -5.98  -4.14c
iter:  26 13:17:13  -187.628609c -6.31  -4.09c
iter:  27 13:20:03  -187.628611c -6.27  -4.25c
iter:  28 13:22:46  -187.628604c -6.56  -4.27c
iter:  29 13:25:43  -187.628610c -6.62  -4.33c
Writing to output.gpw (mode='')

iter:  30 13:28:29  -187.628607c -6.76  -4.47c
iter:  31 13:31:22  -187.628609c -6.88  -4.50c
iter:  32 13:34:08  -187.628610c -6.88  -4.69c
iter:  33 13:37:03  -187.628609c -7.08  -4.91c
iter:  34 13:39:59  -187.628609c -7.25  -5.08c
Writing to output.gpw (mode='')

iter:  35 13:42:44  -187.628609c -7.32  -5.09c
iter:  36 13:45:29  -187.628608c -7.35  -5.15c
iter:  37 13:48:28  -187.628608c -7.44c -5.28c

Converged after 37 iterations.

Dipole moment: (-6.155579, -3.553925, -0.000000) |e|*Ang

Energy contributions relative to reference atoms: (reference = -7300.361529)

Kinetic:        +70.256014
Potential:      -57.393095
External:        +0.000000
XC:            -200.249802
Entropy (-ST):   -0.121326
Local:           -0.181062
--------------------------
Free energy:   -187.689271
Extrapolated:  -187.628608

Dipole-layer corrected work functions: 3.332887, 3.332887 eV

Showing only first 2 kpts
 Kpt  Band  Eigenvalues  Occupancy
  0    16     -3.52964    1.96166
  0    17     -3.40890    1.64117
  0    18     -3.40890    1.64114
  0    19     -3.35181    1.18703

  1    16     -3.50966    1.94336
  1    17     -3.50964    1.94334
  1    18     -3.44900    1.82142
  1    19     -3.44898    1.82136


Fermi level: -3.33289

No gap
Writing to output.gpw (mode='')


Forces in eV/Ang:
  0 Li    0.00000   -0.00000   -0.18617
  1 Li    0.00010   -0.00001   -0.18622
  2 Li   -0.00010   -0.00001   -0.18622
  3 Li    0.00004    0.00009   -0.18622
  4 Li   -0.00000    0.00000   -0.18643
  5 Li   -0.00004    0.00009   -0.18622
  6 Li   -0.00006   -0.00009   -0.18622
  7 Li    0.00006   -0.00009   -0.18622
  8 Li    0.00000    0.00000   -0.18642
  9 Li   -0.00026   -0.00015    0.18981
 10 Li    0.00000    0.00023    0.18983
 11 Li    0.00026   -0.00015    0.18981
 12 Li    0.00020   -0.00011    0.18983
 13 Li   -0.00020   -0.00011    0.18983
 14 Li   -0.00000    0.00017    0.18972
 15 Li   -0.00000    0.00030    0.18981
 16 Li    0.00015   -0.00008    0.18972
 17 Li   -0.00015   -0.00008    0.18972
 18 Li    0.00000   -0.00030   -0.18981
 19 Li    0.00015    0.00008   -0.18972
 20 Li   -0.00015    0.00008   -0.18972
 21 Li   -0.00020    0.00011   -0.18983
 22 Li   -0.00000   -0.00017   -0.18972
 23 Li    0.00020    0.00011   -0.18983
 24 Li    0.00026    0.00015   -0.18981
 25 Li   -0.00026    0.00015   -0.18981
 26 Li   -0.00000   -0.00023   -0.18983
 27 Li    0.00000    0.00000    0.18617
 28 Li    0.00010    0.00001    0.18622
 29 Li   -0.00010    0.00001    0.18622
 30 Li    0.00006    0.00009    0.18622
 31 Li    0.00000   -0.00000    0.18642
 32 Li   -0.00006    0.00009    0.18622
 33 Li   -0.00004   -0.00009    0.18622
 34 Li    0.00004   -0.00009    0.18622
 35 Li   -0.00000    0.00000    0.18643

System changes: positions 

Initializing position-dependent things.

Density initialized from wave functions
                                                              
                                                              
                                                              
                                                              
                                                              
                       LiLi       LiLi        Lii             
                                                              
                 Li         LiLi       LiLi         Li        
               Li         Li          Li                      
                      Lii        Lii        LiLi              
       LiLi       LiLi        Lii                             
              Lii        Lii        LiLi                      
                                                              
       Li         Li          Li                              
                                                              
                                                              
                                                              
                                                              

Positions:
   0 Li    -0.000000   -0.000000    9.966793    ( 0.0000,  0.0000,  0.0000)
   1 Li     4.573677   -0.000001    9.966806    ( 0.0000,  0.0000,  0.0000)
   2 Li     9.147337   -0.000001    9.966806    ( 0.0000,  0.0000,  0.0000)
   3 Li     2.286838    3.960921    9.966806    ( 0.0000,  0.0000,  0.0000)
   4 Li     6.860507    3.960916    9.966815    ( 0.0000,  0.0000,  0.0000)
   5 Li    11.434176    3.960921    9.966806    ( 0.0000,  0.0000,  0.0000)
   6 Li     4.573667    7.921826    9.966806    ( 0.0000,  0.0000,  0.0000)
   7 Li     9.147347    7.921826    9.966806    ( 0.0000,  0.0000,  0.0000)
   8 Li    13.721014    7.921831    9.966815    ( 0.0000,  0.0000,  0.0000)
   9 Li     2.286803    1.320286   10.965155    ( 0.0000,  0.0000,  0.0000)
  10 Li     6.860507    1.320353   10.965153    ( 0.0000,  0.0000,  0.0000)
  11 Li    11.434211    1.320286   10.965155    ( 0.0000,  0.0000,  0.0000)
  12 Li     4.573713    5.281197   10.965153    ( 0.0000,  0.0000,  0.0000)
  13 Li     9.147301    5.281197   10.965153    ( 0.0000,  0.0000,  0.0000)
  14 Li    13.721014    5.281270   10.965145    ( 0.0000,  0.0000,  0.0000)
  15 Li     6.860507    9.242174   10.965155    ( 0.0000,  0.0000,  0.0000)
  16 Li    11.434221    9.242112   10.965145    ( 0.0000,  0.0000,  0.0000)
  17 Li    16.007807    9.242112   10.965145    ( 0.0000,  0.0000,  0.0000)
  18 Li     0.000000    2.640573   11.835636    ( 0.0000,  0.0000,  0.0000)
  19 Li     4.573714    2.640635   11.835646    ( 0.0000,  0.0000,  0.0000)
  20 Li     9.147300    2.640635   11.835646    ( 0.0000,  0.0000,  0.0000)
  21 Li     2.286794    6.601550   11.835637    ( 0.0000,  0.0000,  0.0000)
  22 Li     6.860507    6.601477   11.835646    ( 0.0000,  0.0000,  0.0000)
  23 Li    11.434220    6.601550   11.835637    ( 0.0000,  0.0000,  0.0000)
  24 Li     4.573704   10.562460   11.835636    ( 0.0000,  0.0000,  0.0000)
  25 Li     9.147310   10.562460   11.835636    ( 0.0000,  0.0000,  0.0000)
  26 Li    13.721014   10.562393   11.835637    ( 0.0000,  0.0000,  0.0000)
  27 Li    -0.000000    0.000000   12.833997    ( 0.0000,  0.0000,  0.0000)
  28 Li     4.573677    0.000001   12.833984    ( 0.0000,  0.0000,  0.0000)
  29 Li     9.147337    0.000001   12.833984    ( 0.0000,  0.0000,  0.0000)
  30 Li     2.286840    3.960920   12.833984    ( 0.0000,  0.0000,  0.0000)
  31 Li     6.860507    3.960916   12.833976    ( 0.0000,  0.0000,  0.0000)
  32 Li    11.434174    3.960920   12.833984    ( 0.0000,  0.0000,  0.0000)
  33 Li     4.573669    7.921825   12.833984    ( 0.0000,  0.0000,  0.0000)
  34 Li     9.147345    7.921825   12.833984    ( 0.0000,  0.0000,  0.0000)
  35 Li    13.721014    7.921831   12.833976    ( 0.0000,  0.0000,  0.0000)

Unit cell:
           periodic     x           y           z      points  spacing
  1. axis:    yes   13.721014    0.000000    0.000000    76     0.1564
  2. axis:    yes    6.860507   11.882747    0.000000    76     0.1564
  3. axis:    no     0.000000    0.000000   22.800790   144     0.1583

  Lengths:  13.721014  13.721014  22.800790
  Angles:   90.000000  90.000000  60.000000

Effective grid spacing dv^(1/3) = 0.1647

     iter     time        total  log10-change:
                         energy  eigst   dens
iter:   1 13:51:28  -187.692573  -1.57
iter:   2 13:54:16  -187.693154  -2.57  -2.84
iter:   3 13:57:02  -187.693410c -2.96  -2.72
iter:   4 13:59:51  -187.693256c -3.90  -2.58
Writing to output.gpw (mode='')

iter:   5 14:02:44  -187.693198c -4.06  -2.71
iter:   6 14:05:32  -187.693202c -4.59  -2.97
iter:   7 14:08:33  -187.693227c -4.09  -2.99
iter:   8 14:11:25  -187.693357c -3.59  -3.26
iter:   9 14:14:09  -187.693308c -4.54  -3.23
Writing to output.gpw (mode='')

iter:  10 14:17:01  -187.693315c -4.76  -3.36
iter:  11 14:19:48  -187.693284c -5.42  -3.30
iter:  12 14:22:39  -187.693320c -4.85  -3.42
iter:  13 14:25:23  -187.693259c -5.13  -3.28
iter:  14 14:28:16  -187.693248c -4.86  -3.54
Writing to output.gpw (mode='')

iter:  15 14:31:04  -187.693253c -5.76  -3.63
iter:  16 14:33:57  -187.693267c -5.35  -3.69
iter:  17 14:36:52  -187.693238c -5.16  -3.65
iter:  18 14:39:57  -187.693237c -5.46  -4.11c
iter:  19 14:42:44  -187.693245c -6.19  -4.16c
Writing to output.gpw (mode='')

iter:  20 14:45:44  -187.693237c -5.76  -4.21c
iter:  21 14:48:37  -187.693243c -6.29  -4.26c
iter:  22 14:51:40  -187.693241c -6.42  -4.44c
iter:  23 14:54:28  -187.693241c -6.52  -4.56c
iter:  24 14:57:25  -187.693245c -6.67  -4.59c
Writing to output.gpw (mode='')

iter:  25 15:00:22  -187.693243c -6.77  -4.70c
iter:  26 15:03:24  -187.693243c -6.88  -4.83c
iter:  27 15:06:23  -187.693244c -6.93  -4.86c
iter:  28 15:09:19  -187.693244c -6.92  -4.95c
iter:  29 15:12:12  -187.693244c -7.02  -5.13c
Writing to output.gpw (mode='')

iter:  30 15:15:13  -187.693244c -7.12  -5.17c
iter:  31 15:18:20  -187.693244c -7.04  -5.18c
iter:  32 15:21:21  -187.693245c -7.20  -5.03c
iter:  33 15:24:14  -187.693244c -7.28  -5.04c
iter:  34 15:27:19  -187.693244c -7.16  -5.06c
Writing to output.gpw (mode='')

iter:  35 15:30:10  -187.693244c -7.26  -5.11c
iter:  36 15:33:03  -187.693244c -7.38  -5.00c
iter:  37 15:36:04  -187.693244c -7.42c -5.17c

Converged after 37 iterations.

Dipole moment: (-6.156242, -3.554308, 0.000000) |e|*Ang

Energy contributions relative to reference atoms: (reference = -7300.361529)

Kinetic:        +69.562642
Potential:      -56.958913
External:        +0.000000
XC:            -200.056592
Entropy (-ST):   -0.120656
Local:           -0.180053
--------------------------
Free energy:   -187.753572
Extrapolated:  -187.693244

Dipole-layer corrected work functions: 3.324795, 3.324795 eV

Showing only first 2 kpts
 Kpt  Band  Eigenvalues  Occupancy
  0    16     -3.51661    1.95776
  0    17     -3.40405    1.65987
  0    18     -3.40405    1.65983
  0    19     -3.33979    1.14880

  1    16     -3.50685    1.94889
  1    17     -3.50682    1.94887
  1    18     -3.43962    1.81717
  1    19     -3.43960    1.81710


Fermi level: -3.32479

No gap
Writing to output.gpw (mode='')


Forces in eV/Ang:
  0 Li   -0.00000    0.00000   -0.17040
  1 Li    0.00009   -0.00000   -0.17057
  2 Li   -0.00009   -0.00000   -0.17057
  3 Li    0.00004    0.00008   -0.17057
  4 Li    0.00000   -0.00000   -0.17070
  5 Li   -0.00004    0.00008   -0.17057
  6 Li   -0.00005   -0.00007   -0.17057
  7 Li    0.00005   -0.00007   -0.17057
  8 Li   -0.00000    0.00000   -0.17070
  9 Li   -0.00030   -0.00017    0.18138
 10 Li   -0.00000    0.00019    0.18140
 11 Li    0.00030   -0.00017    0.18138
 12 Li    0.00016   -0.00009    0.18140
 13 Li   -0.00016   -0.00009    0.18140
 14 Li   -0.00000    0.00011    0.18129
 15 Li    0.00000    0.00035    0.18138
 16 Li    0.00009   -0.00005    0.18129
 17 Li   -0.00009   -0.00005    0.18129
 18 Li    0.00000   -0.00035   -0.18138
 19 Li    0.00009    0.00005   -0.18129
 20 Li   -0.00009    0.00005   -0.18129
 21 Li   -0.00016    0.00009   -0.18140
 22 Li   -0.00000   -0.00011   -0.18129
 23 Li    0.00016    0.00009   -0.18140
 24 Li    0.00030    0.00017   -0.18138
 25 Li   -0.00030    0.00017   -0.18138
 26 Li   -0.00000   -0.00019   -0.18140
 27 Li    0.00000    0.00000    0.17040
 28 Li    0.00009    0.00000    0.17057
 29 Li   -0.00009    0.00000    0.17057
 30 Li    0.00005    0.00007    0.17057
 31 Li    0.00000    0.00000    0.17070
 32 Li   -0.00005    0.00007    0.17057
 33 Li   -0.00004   -0.00008    0.17057
 34 Li    0.00004   -0.00008    0.17057
 35 Li    0.00000    0.00000    0.17070

System changes: positions 

Initializing position-dependent things.

Density initialized from wave functions
                                                              
                                                              
                                                              
                                                              
                                                              
                       LiLi       LiLi        Lii             
                                                              
                 Li         LiLi       LiLi         Li        
               Li         Li          Li                      
                      Lii        Lii        LiLi              
       LiLi       LiLi        Lii                             
              Lii        Lii        LiLi                      
                                                              
       Li         Li          Li                              
                                                              
                                                              
                                                              
                                                              

Positions:
   0 Li    -0.000000   -0.000000    9.956793    ( 0.0000,  0.0000,  0.0000)
   1 Li     4.573680   -0.000002    9.956806    ( 0.0000,  0.0000,  0.0000)
   2 Li     9.147334   -0.000002    9.956806    ( 0.0000,  0.0000,  0.0000)
   3 Li     2.286839    3.960924    9.956806    ( 0.0000,  0.0000,  0.0000)
   4 Li     6.860507    3.960916    9.956816    ( 0.0000,  0.0000,  0.0000)
   5 Li    11.434175    3.960924    9.956806    ( 0.0000,  0.0000,  0.0000)
   6 Li     4.573666    7.921825    9.956806    ( 0.0000,  0.0000,  0.0000)
   7 Li     9.147348    7.921825    9.956806    ( 0.0000,  0.0000,  0.0000)
   8 Li    13.721014    7.921831    9.956816    ( 0.0000,  0.0000,  0.0000)
   9 Li     2.286791    1.320280   10.974908    ( 0.0000,  0.0000,  0.0000)
  10 Li     6.860507    1.320367   10.974907    ( 0.0000,  0.0000,  0.0000)
  11 Li    11.434223    1.320280   10.974908    ( 0.0000,  0.0000,  0.0000)
  12 Li     4.573725    5.281190   10.974907    ( 0.0000,  0.0000,  0.0000)
  13 Li     9.147289    5.281190   10.974907    ( 0.0000,  0.0000,  0.0000)
  14 Li    13.721014    5.281282   10.974895    ( 0.0000,  0.0000,  0.0000)
  15 Li     6.860507    9.242187   10.974908    ( 0.0000,  0.0000,  0.0000)
  16 Li    11.434232    9.242105   10.974895    ( 0.0000,  0.0000,  0.0000)
  17 Li    16.007796    9.242105   10.974895    ( 0.0000,  0.0000,  0.0000)
  18 Li     0.000000    2.640559   11.825882    ( 0.0000,  0.0000,  0.0000)
  19 Li     4.573725    2.640641   11.825896    ( 0.0000,  0.0000,  0.0000)
  20 Li     9.147289    2.640641   11.825896    ( 0.0000,  0.0000,  0.0000)
  21 Li     2.286782    6.601557   11.825883    ( 0.0000,  0.0000,  0.0000)
  22 Li     6.860507    6.601464   11.825896    ( 0.0000,  0.0000,  0.0000)
  23 Li    11.434232    6.601557   11.825883    ( 0.0000,  0.0000,  0.0000)
  24 Li     4.573716   10.562467   11.825882    ( 0.0000,  0.0000,  0.0000)
  25 Li     9.147298   10.562467   11.825882    ( 0.0000,  0.0000,  0.0000)
  26 Li    13.721014   10.562379   11.825883    ( 0.0000,  0.0000,  0.0000)
  27 Li    -0.000000    0.000000   12.843997    ( 0.0000,  0.0000,  0.0000)
  28 Li     4.573680    0.000002   12.843984    ( 0.0000,  0.0000,  0.0000)
  29 Li     9.147334    0.000002   12.843984    ( 0.0000,  0.0000,  0.0000)
  30 Li     2.286841    3.960922   12.843984    ( 0.0000,  0.0000,  0.0000)
  31 Li     6.860507    3.960916   12.843974    ( 0.0000,  0.0000,  0.0000)
  32 Li    11.434173    3.960922   12.843984    ( 0.0000,  0.0000,  0.0000)
  33 Li     4.573668    7.921823   12.843984    ( 0.0000,  0.0000,  0.0000)
  34 Li     9.147346    7.921823   12.843984    ( 0.0000,  0.0000,  0.0000)
  35 Li    13.721014    7.921831   12.843974    ( 0.0000,  0.0000,  0.0000)

Unit cell:
           periodic     x           y           z      points  spacing
  1. axis:    yes   13.721014    0.000000    0.000000    76     0.1564
  2. axis:    yes    6.860507   11.882747    0.000000    76     0.1564
  3. axis:    no     0.000000    0.000000   22.800790   144     0.1583

  Lengths:  13.721014  13.721014  22.800790
  Angles:   90.000000  90.000000  60.000000

Effective grid spacing dv^(1/3) = 0.1647

     iter     time        total  log10-change:
                         energy  eigst   dens
iter:   1 15:39:09  -187.753290  -1.57
iter:   2 15:41:58  -187.753879  -2.56  -2.83
iter:   3 15:44:41  -187.754144c -2.95  -2.71
iter:   4 15:47:39  -187.753975c -3.90  -2.57
Writing to output.gpw (mode='')

iter:   5 15:50:30  -187.753911c -4.06  -2.71
iter:   6 15:53:17  -187.753915c -4.59  -2.97
iter:   7 15:56:12  -187.753943c -4.03  -2.98
iter:   8 15:59:11  -187.754069c -3.57  -3.31
iter:   9 16:02:07  -187.754079c -4.00  -3.21
Writing to output.gpw (mode='')

iter:  10 16:04:57  -187.754100c -4.18  -3.15
iter:  11 16:07:53  -187.754078c -4.71  -3.07
iter:  12 16:10:58  -187.753981c -4.72  -3.11
iter:  13 16:13:53  -187.753983c -5.24  -3.45
iter:  14 16:16:42  -187.753975c -5.16  -3.47
Writing to output.gpw (mode='')

iter:  15 16:19:34  -187.753952c -4.75  -3.54
iter:  16 16:22:27  -187.753941c -4.82  -3.74
iter:  17 16:25:15  -187.753952c -6.04  -3.74
iter:  18 16:28:05  -187.753985c -5.13  -3.83
iter:  19 16:30:57  -187.753958c -5.74  -3.63
Writing to output.gpw (mode='')

iter:  20 16:33:34  -187.753945c -5.20  -4.00
iter:  21 16:36:26  -187.753951c -6.41  -4.08c
iter:  22 16:39:16  -187.753959c -6.18  -4.23c
iter:  23 16:42:13  -187.753952c -6.34  -4.38c
iter:  24 16:45:03  -187.753952c -6.51  -4.59c
Writing to output.gpw (mode='')

iter:  25 16:47:51  -187.753951c -6.57  -4.51c
iter:  26 16:50:47  -187.753951c -6.87  -4.42c
iter:  27 16:53:53  -187.753952c -6.91  -4.40c
iter:  28 16:56:40  -187.753953c -7.01  -4.41c
iter:  29 16:59:29  -187.753953c -7.04  -4.49c
Writing to output.gpw (mode='')

iter:  30 17:02:18  -187.753953c -7.10  -4.49c
iter:  31 17:05:07  -187.753955c -6.91  -4.47c
iter:  32 17:07:54  -187.753953c -6.96  -4.68c
iter:  33 17:10:35  -187.753953c -6.88  -4.65c
iter:  34 17:13:31  -187.753955c -7.09  -4.73c
Writing to output.gpw (mode='')

iter:  35 17:16:29  -187.753953c -7.33  -5.04c
iter:  36 17:19:29  -187.753955c -7.20  -4.85c
iter:  37 17:22:19  -187.753955c -7.58c -5.14c

Converged after 37 iterations.

Dipole moment: (-6.156911, -3.554694, -0.000000) |e|*Ang

Energy contributions relative to reference atoms: (reference = -7300.361529)

Kinetic:        +68.875750
Potential:      -56.527257
External:        +0.000000
XC:            -199.863376
Entropy (-ST):   -0.120062
Local:           -0.179041
--------------------------
Free energy:   -187.813986
Extrapolated:  -187.753955

Dipole-layer corrected work functions: 3.316525, 3.316525 eV

Showing only first 2 kpts
 Kpt  Band  Eigenvalues  Occupancy
  0    16     -3.50343    1.95350
  0    17     -3.39916    1.67849
  0    18     -3.39915    1.67845
  0    19     -3.32758    1.11013

  1    16     -3.50392    1.95395
  1    17     -3.50390    1.95393
  1    18     -3.43011    1.81300
  1    19     -3.43008    1.81292


Fermi level: -3.31653

No gap
Writing to output.gpw (mode='')


Forces in eV/Ang:
  0 Li    0.00000    0.00000   -0.15528
  1 Li    0.00007   -0.00000   -0.15537
  2 Li   -0.00007   -0.00000   -0.15537
  3 Li    0.00003    0.00006   -0.15537
  4 Li   -0.00000    0.00000   -0.15556
  5 Li   -0.00003    0.00006   -0.15537
  6 Li   -0.00004   -0.00006   -0.15537
  7 Li    0.00004   -0.00006   -0.15537
  8 Li    0.00000    0.00000   -0.15556
  9 Li   -0.00032   -0.00018    0.17287
 10 Li   -0.00000    0.00016    0.17285
 11 Li    0.00032   -0.00018    0.17287
 12 Li    0.00014   -0.00008    0.17285
 13 Li   -0.00014   -0.00008    0.17285
 14 Li   -0.00000    0.00005    0.17275
 15 Li   -0.00000    0.00037    0.17287
 16 Li    0.00004   -0.00003    0.17275
 17 Li   -0.00004   -0.00003    0.17275
 18 Li   -0.00000   -0.00037   -0.17287
 19 Li    0.00004    0.00003   -0.17275
 20 Li   -0.00004    0.00003   -0.17275
 21 Li   -0.00014    0.00008   -0.17285
 22 Li   -0.00000   -0.00005   -0.17275
 23 Li    0.00014    0.00008   -0.17285
 24 Li    0.00032    0.00018   -0.17287
 25 Li   -0.00032    0.00018   -0.17287
 26 Li    0.00000   -0.00016   -0.17285
 27 Li   -0.00000   -0.00000    0.15528
 28 Li    0.00007    0.00000    0.15537
 29 Li   -0.00007    0.00000    0.15537
 30 Li    0.00004    0.00006    0.15537
 31 Li    0.00000   -0.00000    0.15556
 32 Li   -0.00004    0.00006    0.15537
 33 Li   -0.00003   -0.00006    0.15537
 34 Li    0.00003   -0.00006    0.15537
 35 Li    0.00000    0.00000    0.15556

System changes: positions 

Initializing position-dependent things.

Density initialized from wave functions
                                                              
                                                              
                                                              
                                                              
                                                              
                       LiLi       LiLi        Lii             
                                                              
                 Li         LiLi       LiLi         Li        
               Li         Li          Li                      
                      Lii        Lii        LiLi              
       LiLi       LiLi        Lii                             
              Lii        Lii        LiLi                      
                                                              
       Li         Li          Li                              
                                                              
                                                              
                                                              
                                                              

Positions:
   0 Li    -0.000000   -0.000000    9.946793    ( 0.0000,  0.0000,  0.0000)
   1 Li     4.573682   -0.000002    9.946808    ( 0.0000,  0.0000,  0.0000)
   2 Li     9.147332   -0.000002    9.946808    ( 0.0000,  0.0000,  0.0000)
   3 Li     2.286839    3.960926    9.946808    ( 0.0000,  0.0000,  0.0000)
   4 Li     6.860507    3.960916    9.946818    ( 0.0000,  0.0000,  0.0000)
   5 Li    11.434175    3.960926    9.946808    ( 0.0000,  0.0000,  0.0000)
   6 Li     4.573664    7.921823    9.946808    ( 0.0000,  0.0000,  0.0000)
   7 Li     9.147350    7.921823    9.946808    ( 0.0000,  0.0000,  0.0000)
   8 Li    13.721014    7.921831    9.946818    ( 0.0000,  0.0000,  0.0000)
   9 Li     2.286779    1.320273   10.984773    ( 0.0000,  0.0000,  0.0000)
  10 Li     6.860507    1.320381   10.984771    ( 0.0000,  0.0000,  0.0000)
  11 Li    11.434235    1.320273   10.984773    ( 0.0000,  0.0000,  0.0000)
  12 Li     4.573737    5.281183   10.984771    ( 0.0000,  0.0000,  0.0000)
  13 Li     9.147277    5.281183   10.984771    ( 0.0000,  0.0000,  0.0000)
  14 Li    13.721014    5.281295   10.984755    ( 0.0000,  0.0000,  0.0000)
  15 Li     6.860507    9.242202   10.984773    ( 0.0000,  0.0000,  0.0000)
  16 Li    11.434242    9.242099   10.984755    ( 0.0000,  0.0000,  0.0000)
  17 Li    16.007786    9.242099   10.984755    ( 0.0000,  0.0000,  0.0000)
  18 Li     0.000000    2.640545   11.816017    ( 0.0000,  0.0000,  0.0000)
  19 Li     4.573735    2.640647   11.816035    ( 0.0000,  0.0000,  0.0000)
  20 Li     9.147279    2.640647   11.816035    ( 0.0000,  0.0000,  0.0000)
  21 Li     2.286770    6.601564   11.816019    ( 0.0000,  0.0000,  0.0000)
  22 Li     6.860507    6.601452   11.816035    ( 0.0000,  0.0000,  0.0000)
  23 Li    11.434244    6.601564   11.816019    ( 0.0000,  0.0000,  0.0000)
  24 Li     4.573728   10.562474   11.816017    ( 0.0000,  0.0000,  0.0000)
  25 Li     9.147286   10.562474   11.816017    ( 0.0000,  0.0000,  0.0000)
  26 Li    13.721014   10.562365   11.816019    ( 0.0000,  0.0000,  0.0000)
  27 Li    -0.000000   -0.000000   12.853997    ( 0.0000,  0.0000,  0.0000)
  28 Li     4.573682    0.000002   12.853982    ( 0.0000,  0.0000,  0.0000)
  29 Li     9.147332    0.000002   12.853982    ( 0.0000,  0.0000,  0.0000)
  30 Li     2.286843    3.960924   12.853982    ( 0.0000,  0.0000,  0.0000)
  31 Li     6.860507    3.960916   12.853973    ( 0.0000,  0.0000,  0.0000)
  32 Li    11.434171    3.960924   12.853982    ( 0.0000,  0.0000,  0.0000)
  33 Li     4.573668    7.921821   12.853982    ( 0.0000,  0.0000,  0.0000)
  34 Li     9.147346    7.921821   12.853982    ( 0.0000,  0.0000,  0.0000)
  35 Li    13.721014    7.921831   12.853973    ( 0.0000,  0.0000,  0.0000)

Unit cell:
           periodic     x           y           z      points  spacing
  1. axis:    yes   13.721014    0.000000    0.000000    76     0.1564
  2. axis:    yes    6.860507   11.882747    0.000000    76     0.1564
  3. axis:    no     0.000000    0.000000   22.800790   144     0.1583

  Lengths:  13.721014  13.721014  22.800790
  Angles:   90.000000  90.000000  60.000000

Effective grid spacing dv^(1/3) = 0.1647

     iter     time        total  log10-change:
                         energy  eigst   dens
iter:   1 17:25:21  -187.810121  -1.56
iter:   2 17:28:11  -187.810715  -2.55  -2.82
iter:   3 17:31:08  -187.810988c -2.94  -2.71
iter:   4 17:34:00  -187.810802c -3.90  -2.57
Writing to output.gpw (mode='')

iter:   5 17:36:51  -187.810732c -4.06  -2.71
iter:   6 17:39:46  -187.810736c -4.58  -2.97
iter:   7 17:42:29  -187.810760c -4.02  -2.98
iter:   8 17:45:25  -187.810882c -3.56  -3.32
iter:   9 17:48:18  -187.810898c -3.95  -3.21
Writing to output.gpw (mode='')

iter:  10 17:51:12  -187.810877c -4.57  -3.13
iter:  11 17:54:07  -187.810861c -4.93  -3.15
iter:  12 17:57:02  -187.810817c -5.22  -3.20
iter:  13 17:59:52  -187.810804c -5.25  -3.36
iter:  14 18:02:47  -187.810805c -5.69  -3.46
Writing to output.gpw (mode='')

iter:  15 18:05:36  -187.810755c -4.60  -3.47
iter:  16 18:08:24  -187.810766c -5.66  -3.67
iter:  17 18:11:12  -187.810761c -5.46  -3.75
iter:  18 18:14:05  -187.810772c -6.09  -3.69
iter:  19 18:17:13  -187.810792c -5.39  -3.84
Writing to output.gpw (mode='')

iter:  20 18:20:14  -187.810768c -5.69  -3.82
iter:  21 18:23:00  -187.810772c -6.24  -4.19c
iter:  22 18:25:55  -187.810777c -6.33  -4.34c
iter:  23 18:28:50  -187.810771c -6.35  -4.31c
iter:  24 18:31:42  -187.810774c -6.86  -4.57c
Writing to output.gpw (mode='')

iter:  25 18:34:41  -187.810773c -6.88  -4.61c
iter:  26 18:37:32  -187.810772c -6.89  -4.90c
iter:  27 18:40:22  -187.810772c -7.07  -5.02c
iter:  28 18:43:21  -187.810772c -7.13  -5.01c
iter:  29 18:46:15  -187.810772c -7.23  -5.05c
Writing to output.gpw (mode='')

iter:  30 18:49:14  -187.810772c -7.27  -4.99c
iter:  31 18:52:02  -187.810772c -7.33  -4.93c
iter:  32 18:54:52  -187.810773c -7.32  -5.07c
iter:  33 18:57:53  -187.810773c -7.45c -5.17c

Converged after 33 iterations.

Dipole moment: (-6.157607, -3.555096, -0.000000) |e|*Ang

Energy contributions relative to reference atoms: (reference = -7300.361529)

Kinetic:        +68.195289
Potential:      -56.097772
External:        +0.000000
XC:            -199.670496
Entropy (-ST):   -0.119553
Local:           -0.178017
--------------------------
Free energy:   -187.870549
Extrapolated:  -187.810773

Dipole-layer corrected work functions: 3.308046, 3.308046 eV

Showing only first 2 kpts
 Kpt  Band  Eigenvalues  Occupancy
  0    16     -3.49004    1.94884
  0    17     -3.39418    1.69694
  0    18     -3.39417    1.69691
  0    19     -3.31516    1.07102

  1    16     -3.50085    1.95858
  1    17     -3.50082    1.95855
  1    18     -3.42044    1.80893
  1    19     -3.42041    1.80883


Fermi level: -3.30805

No gap
Writing to output.gpw (mode='')


Forces in eV/Ang:
  0 Li    0.00000   -0.00000   -0.14058
  1 Li    0.00008    0.00000   -0.14055
  2 Li   -0.00008    0.00000   -0.14055
  3 Li    0.00004    0.00007   -0.14055
  4 Li    0.00000    0.00000   -0.14079
  5 Li   -0.00004    0.00007   -0.14055
  6 Li   -0.00004   -0.00007   -0.14055
  7 Li    0.00004   -0.00007   -0.14055
  8 Li   -0.00000    0.00000   -0.14079
  9 Li   -0.00032   -0.00018    0.16441
 10 Li    0.00000    0.00014    0.16445
 11 Li    0.00032   -0.00018    0.16441
 12 Li    0.00012   -0.00007    0.16445
 13 Li   -0.00012   -0.00007    0.16445
 14 Li   -0.00000    0.00001    0.16436
 15 Li    0.00000    0.00036    0.16441
 16 Li    0.00001   -0.00001    0.16436
 17 Li   -0.00001   -0.00001    0.16436
 18 Li    0.00000   -0.00036   -0.16441
 19 Li    0.00001    0.00001   -0.16436
 20 Li   -0.00001    0.00001   -0.16436
 21 Li   -0.00012    0.00007   -0.16445
 22 Li   -0.00000   -0.00001   -0.16436
 23 Li    0.00012    0.00007   -0.16445
 24 Li    0.00032    0.00018   -0.16441
 25 Li   -0.00032    0.00018   -0.16441
 26 Li    0.00000   -0.00014   -0.16445
 27 Li    0.00000    0.00000    0.14058
 28 Li    0.00008   -0.00000    0.14055
 29 Li   -0.00008   -0.00000    0.14055
 30 Li    0.00004    0.00007    0.14055
 31 Li   -0.00000    0.00000    0.14079
 32 Li   -0.00004    0.00007    0.14055
 33 Li   -0.00004   -0.00007    0.14055
 34 Li    0.00004   -0.00007    0.14055
 35 Li    0.00000    0.00000    0.14079

System changes: positions 

Initializing position-dependent things.

Density initialized from wave functions
                                                              
                                                              
                                                              
                                                              
                                                              
                       LiLi       LiLi        Lii             
                                                              
                              Li         Li         Li        
               LiLi       LiLi        Lii                     
                       Li         Li          Li              
       LiLi       LiLiLi      LiiLi         Li                
                                                              
              Lii        Lii        LiLi                      
                                                              
       Li         Li          Li                              
                                                              
                                                              
                                                              
                                                              

Positions:
   0 Li    -0.000000   -0.000000    9.936793    ( 0.0000,  0.0000,  0.0000)
   1 Li     4.573684   -0.000002    9.936811    ( 0.0000,  0.0000,  0.0000)
   2 Li     9.147329   -0.000002    9.936811    ( 0.0000,  0.0000,  0.0000)
   3 Li     2.286840    3.960928    9.936811    ( 0.0000,  0.0000,  0.0000)
   4 Li     6.860507    3.960916    9.936820    ( 0.0000,  0.0000,  0.0000)
   5 Li    11.434173    3.960928    9.936811    ( 0.0000,  0.0000,  0.0000)
   6 Li     4.573663    7.921821    9.936811    ( 0.0000,  0.0000,  0.0000)
   7 Li     9.147351    7.921821    9.936811    ( 0.0000,  0.0000,  0.0000)
   8 Li    13.721014    7.921831    9.936820    ( 0.0000,  0.0000,  0.0000)
   9 Li     2.286767    1.320265   10.994752    ( 0.0000,  0.0000,  0.0000)
  10 Li     6.860507    1.320395   10.994751    ( 0.0000,  0.0000,  0.0000)
  11 Li    11.434247    1.320265   10.994752    ( 0.0000,  0.0000,  0.0000)
  12 Li     4.573749    5.281176   10.994751    ( 0.0000,  0.0000,  0.0000)
  13 Li     9.147265    5.281176   10.994751    ( 0.0000,  0.0000,  0.0000)
  14 Li    13.721014    5.281306   10.994731    ( 0.0000,  0.0000,  0.0000)
  15 Li     6.860507    9.242216   10.994752    ( 0.0000,  0.0000,  0.0000)
  16 Li    11.434253    9.242093   10.994731    ( 0.0000,  0.0000,  0.0000)
  17 Li    16.007775    9.242093   10.994731    ( 0.0000,  0.0000,  0.0000)
  18 Li     0.000000    2.640531   11.806038    ( 0.0000,  0.0000,  0.0000)
  19 Li     4.573746    2.640653   11.806059    ( 0.0000,  0.0000,  0.0000)
  20 Li     9.147268    2.640653   11.806059    ( 0.0000,  0.0000,  0.0000)
  21 Li     2.286758    6.601571   11.806040    ( 0.0000,  0.0000,  0.0000)
  22 Li     6.860507    6.601440   11.806059    ( 0.0000,  0.0000,  0.0000)
  23 Li    11.434256    6.601571   11.806040    ( 0.0000,  0.0000,  0.0000)
  24 Li     4.573740   10.562481   11.806038    ( 0.0000,  0.0000,  0.0000)
  25 Li     9.147273   10.562481   11.806038    ( 0.0000,  0.0000,  0.0000)
  26 Li    13.721014   10.562352   11.806040    ( 0.0000,  0.0000,  0.0000)
  27 Li    -0.000000   -0.000000   12.863997    ( 0.0000,  0.0000,  0.0000)
  28 Li     4.573684    0.000002   12.863979    ( 0.0000,  0.0000,  0.0000)
  29 Li     9.147329    0.000002   12.863979    ( 0.0000,  0.0000,  0.0000)
  30 Li     2.286844    3.960926   12.863979    ( 0.0000,  0.0000,  0.0000)
  31 Li     6.860507    3.960916   12.863970    ( 0.0000,  0.0000,  0.0000)
  32 Li    11.434170    3.960926   12.863979    ( 0.0000,  0.0000,  0.0000)
  33 Li     4.573667    7.921819   12.863979    ( 0.0000,  0.0000,  0.0000)
  34 Li     9.147347    7.921819   12.863979    ( 0.0000,  0.0000,  0.0000)
  35 Li    13.721014    7.921831   12.863970    ( 0.0000,  0.0000,  0.0000)

Unit cell:
           periodic     x           y           z      points  spacing
  1. axis:    yes   13.721014    0.000000    0.000000    76     0.1564
  2. axis:    yes    6.860507   11.882747    0.000000    76     0.1564
  3. axis:    no     0.000000    0.000000   22.800790   144     0.1583

  Lengths:  13.721014  13.721014  22.800790
  Angles:   90.000000  90.000000  60.000000

Effective grid spacing dv^(1/3) = 0.1647

     iter     time        total  log10-change:
                         energy  eigst   dens
iter:   1 19:00:55  -187.863100  -1.55
iter:   2 19:03:51  -187.863703  -2.54  -2.82
iter:   3 19:06:45  -187.863988c -2.93  -2.70
iter:   4 19:09:39  -187.863778c -3.90  -2.56
Writing to output.gpw (mode='')

iter:   5 19:12:39  -187.863698c -4.05  -2.71
iter:   6 19:15:22  -187.863703c -4.57  -2.97
iter:   7 19:18:12  -187.863710c -4.27  -2.98
iter:   8 19:21:03  -187.863837c -3.59  -3.14
iter:   9 19:23:54  -187.863798c -4.46  -3.23
Writing to output.gpw (mode='')

iter:  10 19:26:48  -187.863800c -4.73  -3.33
iter:  11 19:29:46  -187.863781c -5.10  -3.29
iter:  12 19:32:45  -187.863785c -5.13  -3.41
iter:  13 19:35:40  -187.863765c -5.45  -3.39
iter:  14 19:38:35  -187.863774c -5.64  -3.50
Writing to output.gpw (mode='')

iter:  15 19:41:36  -187.863733c -4.90  -3.45
iter:  16 19:44:36  -187.863747c -5.57  -3.71
iter:  17 19:47:29  -187.863735c -5.59  -3.76
iter:  18 19:50:20  -187.863727c -5.31  -3.99
iter:  19 19:53:07  -187.863732c -5.89  -4.09c
Writing to output.gpw (mode='')

iter:  20 19:56:17  -187.863734c -6.27  -4.21c
iter:  21 19:59:08  -187.863737c -6.24  -4.24c
iter:  22 20:02:00  -187.863736c -6.42  -4.49c
iter:  23 20:04:53  -187.863737c -6.59  -4.61c
iter:  24 20:07:48  -187.863736c -6.72  -4.52c
Writing to output.gpw (mode='')

iter:  25 20:10:54  -187.863735c -6.60  -4.70c
iter:  26 20:13:57  -187.863736c -6.99  -4.87c
iter:  27 20:16:55  -187.863736c -6.98  -4.99c
iter:  28 20:19:51  -187.863735c -7.11  -5.04c
iter:  29 20:22:43  -187.863736c -7.14  -5.09c
Writing to output.gpw (mode='')

iter:  30 20:25:35  -187.863736c -7.21  -5.17c
iter:  31 20:28:34  -187.863736c -7.28  -5.26c
iter:  32 20:31:29  -187.863736c -7.37  -5.35c
iter:  33 20:34:21  -187.863736c -7.42c -5.57c

Converged after 33 iterations.

Dipole moment: (-6.158306, -3.555500, -0.000000) |e|*Ang

Energy contributions relative to reference atoms: (reference = -7300.361529)

Kinetic:        +67.518625
Potential:      -55.668702
External:        +0.000000
XC:            -199.477088
Entropy (-ST):   -0.119139
Local:           -0.177002
--------------------------
Free energy:   -187.923306
Extrapolated:  -187.863736

Dipole-layer corrected work functions: 3.299470, 3.299470 eV

Showing only first 2 kpts
 Kpt  Band  Eigenvalues  Occupancy
  0    16     -3.47657    1.94372
  0    17     -3.38922    1.71510
  0    18     -3.38922    1.71506
  0    19     -3.30263    1.03154

  1    16     -3.49774    1.96278
  1    17     -3.49770    1.96275
  1    18     -3.41072    1.80495
  1    19     -3.41069    1.80484


Fermi level: -3.29947

No gap
Writing to output.gpw (mode='')


Forces in eV/Ang:
  0 Li    0.00000   -0.00000   -0.12613
  1 Li    0.00001    0.00000   -0.12600
  2 Li   -0.00001    0.00000   -0.12600
  3 Li    0.00001    0.00001   -0.12600
  4 Li    0.00000    0.00000   -0.12624
  5 Li   -0.00001    0.00001   -0.12600
  6 Li   -0.00000   -0.00001   -0.12600
[...]
iter:   7 18:12:39  -188.220640c -3.86  -3.14
iter:   8 18:15:30  -188.220650c -4.16  -3.58
iter:   9 18:18:16  -188.220647c -4.61  -3.45
Writing to output.gpw (mode='')

iter:  10 18:21:07  -188.220632c -5.30  -3.45
iter:  11 18:24:00  -188.220632c -5.50  -3.70
iter:  12 18:26:46  -188.220632c -5.64  -3.73
iter:  13 18:29:37  -188.220621c -5.00  -3.71
iter:  14 18:32:34  -188.220624c -5.82  -3.85
Writing to output.gpw (mode='')

iter:  15 18:35:26  -188.220625c -5.96  -4.03c
iter:  16 18:38:16  -188.220631c -5.64  -4.06c
iter:  17 18:41:02  -188.220626c -5.97  -3.93
iter:  18 18:43:49  -188.220626c -6.15  -4.31c
iter:  19 18:46:45  -188.220625c -6.03  -4.33c
Writing to output.gpw (mode='')

iter:  20 18:49:44  -188.220626c -6.35  -4.46c
iter:  21 18:52:31  -188.220625c -6.39  -4.50c
iter:  22 18:55:16  -188.220624c -6.31  -4.77c
iter:  23 18:58:10  -188.220625c -6.62  -4.69c
iter:  24 19:00:54  -188.220624c -6.70  -4.92c
Writing to output.gpw (mode='')

iter:  25 19:03:46  -188.220624c -6.80  -4.91c
iter:  26 19:06:36  -188.220625c -6.81  -4.94c
iter:  27 19:09:56  -188.220624c -6.95  -5.01c
iter:  28 19:13:04  -188.220624c -7.04  -5.30c
iter:  29 19:16:12  -188.220624c -7.11  -5.32c
Writing to output.gpw (mode='')

iter:  30 19:19:13  -188.220624c -7.19  -5.36c
iter:  31 19:22:15  -188.220624c -7.28  -5.28c
iter:  32 19:25:12  -188.220624c -7.36  -5.29c
iter:  33 19:28:15  -188.220624c -7.38  -5.32c
iter:  34 19:31:12  -188.220624c -7.50c -5.29c

Converged after 34 iterations.

Dipole moment: (-6.167561, -3.560843, 0.000000) |e|*Ang

Energy contributions relative to reference atoms: (reference = -7300.361529)

Kinetic:        +59.479038
Potential:      -50.424826
External:        +0.000000
XC:            -197.048845
Entropy (-ST):   -0.123661
Local:           -0.164162
--------------------------
Free energy:   -188.282455
Extrapolated:  -188.220624

Dipole-layer corrected work functions: 3.184826, 3.184826 eV

Showing only first 2 kpts
 Kpt  Band  Eigenvalues  Occupancy
  0    16     -3.32544    1.88668
  0    17     -3.32543    1.88665
  0    18     -3.29870    1.81398
  0    19     -3.13504    0.53953

  1    16     -3.39442    1.97021
  1    17     -3.37482    1.95623
  1    18     -3.28668    1.76928
  1    19     -3.28661    1.76898


Fermi level: -3.18483

No gap
Writing to output.gpw (mode='')


Forces in eV/Ang:
  0 Li   -0.00000    0.00000    0.02845
  1 Li    0.00010    0.00001    0.02844
  2 Li   -0.00010    0.00001    0.02844
  3 Li    0.00006    0.00008    0.02844
  4 Li    0.00000    0.00000    0.02816
  5 Li   -0.00006    0.00008    0.02844
  6 Li   -0.00004   -0.00009    0.02844
  7 Li    0.00004   -0.00009    0.02844
  8 Li    0.00000    0.00000    0.02815
  9 Li    0.00008    0.00004    0.05512
 10 Li   -0.00000   -0.00029    0.05513
 11 Li   -0.00008    0.00004    0.05512
 12 Li   -0.00025    0.00015    0.05513
 13 Li    0.00025    0.00015    0.05513
 14 Li    0.00000   -0.00038    0.05505
 15 Li   -0.00000   -0.00009    0.05512
 16 Li   -0.00033    0.00019    0.05505
 17 Li    0.00033    0.00019    0.05505
 18 Li    0.00000    0.00009   -0.05512
 19 Li   -0.00033   -0.00019   -0.05505
 20 Li    0.00033   -0.00019   -0.05505
 21 Li    0.00025   -0.00015   -0.05513
 22 Li   -0.00000    0.00038   -0.05505
 23 Li   -0.00025   -0.00015   -0.05513
 24 Li   -0.00008   -0.00004   -0.05512
 25 Li    0.00008   -0.00004   -0.05512
 26 Li   -0.00000    0.00029   -0.05513
 27 Li   -0.00000    0.00000   -0.02845
 28 Li    0.00010   -0.00001   -0.02844
 29 Li   -0.00010   -0.00001   -0.02844
 30 Li    0.00004    0.00009   -0.02844
 31 Li    0.00000   -0.00000   -0.02815
 32 Li   -0.00004    0.00009   -0.02844
 33 Li   -0.00006   -0.00008   -0.02844
 34 Li    0.00006   -0.00008   -0.02844
 35 Li    0.00000    0.00000   -0.02816

System changes: positions 

Initializing position-dependent things.

Density initialized from wave functions
                                                              
                                                              
                                                              
                                                              
                                                              
                       LiLi       LiLi        Lii             
                                                              
                              Li         Li         Li        
               LiLi       LiLi        Lii                     
                      Lii        Lii        LiLi              
       LiLi       LiLi        Lii                             
                                                              
              Lii        Lii        LiLi                      
                                                              
       Li         Li          Li                              
                                                              
                                                              
                                                              
                                                              

Positions:
   0 Li    -0.000000   -0.000000    9.804742    ( 0.0000,  0.0000,  0.0000)
   1 Li     4.573702   -0.000002    9.804862    ( 0.0000,  0.0000,  0.0000)
   2 Li     9.147312   -0.000002    9.804862    ( 0.0000,  0.0000,  0.0000)
   3 Li     2.286849    3.960943    9.804862    ( 0.0000,  0.0000,  0.0000)
   4 Li     6.860507    3.960916    9.804835    ( 0.0000,  0.0000,  0.0000)
   5 Li    11.434165    3.960943    9.804862    ( 0.0000,  0.0000,  0.0000)
   6 Li     4.573654    7.921806    9.804862    ( 0.0000,  0.0000,  0.0000)
   7 Li     9.147360    7.921806    9.804862    ( 0.0000,  0.0000,  0.0000)
   8 Li    13.721014    7.921831    9.804834    ( 0.0000,  0.0000,  0.0000)
   9 Li     2.286664    1.320206   11.144746    ( 0.0000,  0.0000,  0.0000)
  10 Li     6.860507    1.320506   11.144750    ( 0.0000,  0.0000,  0.0000)
  11 Li    11.434350    1.320206   11.144746    ( 0.0000,  0.0000,  0.0000)
  12 Li     4.573845    5.281120   11.144750    ( 0.0000,  0.0000,  0.0000)
  13 Li     9.147169    5.281120   11.144750    ( 0.0000,  0.0000,  0.0000)
  14 Li    13.721014    5.281391   11.144706    ( 0.0000,  0.0000,  0.0000)
  15 Li     6.860507    9.242334   11.144746    ( 0.0000,  0.0000,  0.0000)
  16 Li    11.434326    9.242051   11.144706    ( 0.0000,  0.0000,  0.0000)
  17 Li    16.007702    9.242051   11.144706    ( 0.0000,  0.0000,  0.0000)
  18 Li     0.000000    2.640413   11.656044    ( 0.0000,  0.0000,  0.0000)
  19 Li     4.573819    2.640696   11.656084    ( 0.0000,  0.0000,  0.0000)
  20 Li     9.147195    2.640696   11.656084    ( 0.0000,  0.0000,  0.0000)
  21 Li     2.286662    6.601626   11.656041    ( 0.0000,  0.0000,  0.0000)
  22 Li     6.860507    6.601356   11.656084    ( 0.0000,  0.0000,  0.0000)
  23 Li    11.434352    6.601626   11.656041    ( 0.0000,  0.0000,  0.0000)
  24 Li     4.573843   10.562540   11.656044    ( 0.0000,  0.0000,  0.0000)
  25 Li     9.147171   10.562540   11.656044    ( 0.0000,  0.0000,  0.0000)
  26 Li    13.721014   10.562241   11.656041    ( 0.0000,  0.0000,  0.0000)
  27 Li    -0.000000   -0.000000   12.996049    ( 0.0000,  0.0000,  0.0000)
  28 Li     4.573702    0.000002   12.995929    ( 0.0000,  0.0000,  0.0000)
  29 Li     9.147312    0.000002   12.995929    ( 0.0000,  0.0000,  0.0000)
  30 Li     2.286853    3.960941   12.995929    ( 0.0000,  0.0000,  0.0000)
  31 Li     6.860507    3.960916   12.995956    ( 0.0000,  0.0000,  0.0000)
  32 Li    11.434161    3.960941   12.995929    ( 0.0000,  0.0000,  0.0000)
  33 Li     4.573658    7.921804   12.995929    ( 0.0000,  0.0000,  0.0000)
  34 Li     9.147356    7.921804   12.995929    ( 0.0000,  0.0000,  0.0000)
  35 Li    13.721014    7.921831   12.995955    ( 0.0000,  0.0000,  0.0000)

Unit cell:
           periodic     x           y           z      points  spacing
  1. axis:    yes   13.721014    0.000000    0.000000    76     0.1564
  2. axis:    yes    6.860507   11.882747    0.000000    76     0.1564
  3. axis:    no     0.000000    0.000000   22.800790   144     0.1583

  Lengths:  13.721014  13.721014  22.800790
  Angles:   90.000000  90.000000  60.000000

Effective grid spacing dv^(1/3) = 0.1647

     iter     time        total  log10-change:
                         energy  eigst   dens
iter:   1 19:34:18  -188.225162  -1.68
iter:   2 19:37:21  -188.225568  -2.71  -2.89
iter:   3 19:40:06  -188.225779c -3.09  -2.78
iter:   4 19:43:01  -188.225543c -4.09  -2.65
Writing to output.gpw (mode='')

iter:   5 19:45:53  -188.225475c -4.16  -2.86
iter:   6 19:48:40  -188.225480c -4.60  -3.14
iter:   7 19:51:28  -188.225508c -3.92  -3.18
iter:   8 19:54:22  -188.225517c -4.25  -3.59
iter:   9 19:57:26  -188.225513c -4.71  -3.48
Writing to output.gpw (mode='')

iter:  10 20:00:22  -188.225505c -5.26  -3.49
iter:  11 20:03:08  -188.225505c -5.47  -3.62
iter:  12 20:06:01  -188.225508c -5.50  -3.61
iter:  13 20:08:59  -188.225495c -5.26  -3.55
iter:  14 20:12:09  -188.225494c -5.52  -3.93
Writing to output.gpw (mode='')

iter:  15 20:14:56  -188.225495c -5.74  -3.98
iter:  16 20:17:43  -188.225498c -5.99  -3.99
iter:  17 20:20:36  -188.225496c -5.91  -3.97
iter:  18 20:23:34  -188.225492c -5.38  -4.12c
iter:  19 20:26:31  -188.225494c -6.14  -3.89
Writing to output.gpw (mode='')

iter:  20 20:29:29  -188.225494c -6.30  -4.07c
iter:  21 20:32:18  -188.225495c -6.25  -4.10c
iter:  22 20:35:10  -188.225496c -6.28  -4.18c
iter:  23 20:38:02  -188.225494c -6.40  -4.21c
iter:  24 20:41:14  -188.225494c -6.59  -4.62c
Writing to output.gpw (mode='')

iter:  25 20:44:12  -188.225494c -6.66  -4.81c
iter:  26 20:47:04  -188.225494c -6.84  -5.00c
iter:  27 20:49:57  -188.225495c -6.77  -4.75c
iter:  28 20:52:56  -188.225494c -6.96  -4.95c
iter:  29 20:55:56  -188.225495c -6.91  -5.09c
Writing to output.gpw (mode='')

iter:  30 20:59:03  -188.225494c -7.11  -4.78c
iter:  31 21:01:50  -188.225494c -7.19  -4.94c
iter:  32 21:04:41  -188.225494c -7.26  -5.11c
iter:  33 21:07:37  -188.225494c -7.33  -5.22c
iter:  34 21:10:26  -188.225494c -7.39  -5.08c
Writing to output.gpw (mode='')

iter:  35 21:13:26  -188.225494c -7.46c -5.57c

Converged after 35 iterations.

Dipole moment: (-6.168069, -3.561136, -0.000000) |e|*Ang

Energy contributions relative to reference atoms: (reference = -7300.361529)

Kinetic:        +59.054688
Potential:      -50.140906
External:        +0.000000
XC:            -196.913579
Entropy (-ST):   -0.124533
Local:           -0.163430
--------------------------
Free energy:   -188.287760
Extrapolated:  -188.225494

Dipole-layer corrected work functions: 3.177973, 3.177973 eV

Showing only first 2 kpts
 Kpt  Band  Eigenvalues  Occupancy
  0    16     -3.32152    1.89278
  0    17     -3.32150    1.89275
  0    18     -3.28805    1.80078
  0    19     -3.12497    0.51459

  1    16     -3.38423    1.96819
  1    17     -3.36475    1.95339
  1    18     -3.27955    1.76815
  1    19     -3.27948    1.76784


Fermi level: -3.17797

No gap

Forces in eV/Ang:
  0 Li    0.00000    0.00000    0.03619
  1 Li    0.00008    0.00001    0.03614
  2 Li   -0.00008    0.00001    0.03614
  3 Li    0.00005    0.00006    0.03614
  4 Li    0.00000   -0.00000    0.03587
  5 Li   -0.00005    0.00006    0.03614
  6 Li   -0.00003   -0.00007    0.03614
  7 Li    0.00003   -0.00007    0.03614
  8 Li    0.00000    0.00000    0.03586
  9 Li    0.00004    0.00003    0.04976
 10 Li    0.00000   -0.00028    0.04983
 11 Li   -0.00004    0.00003    0.04976
 12 Li   -0.00024    0.00014    0.04983
 13 Li    0.00024    0.00014    0.04983
 14 Li   -0.00000   -0.00040    0.04976
 15 Li    0.00000   -0.00005    0.04976
 16 Li   -0.00034    0.00020    0.04976
 17 Li    0.00034    0.00020    0.04976
 18 Li    0.00000    0.00005   -0.04976
 19 Li   -0.00034   -0.00020   -0.04976
 20 Li    0.00034   -0.00020   -0.04976
 21 Li    0.00024   -0.00014   -0.04983
 22 Li   -0.00000    0.00040   -0.04976
 23 Li   -0.00024   -0.00014   -0.04983
 24 Li   -0.00004   -0.00003   -0.04976
 25 Li    0.00004   -0.00003   -0.04976
 26 Li    0.00000    0.00028   -0.04983
 27 Li    0.00000   -0.00000   -0.03619
 28 Li    0.00008   -0.00001   -0.03614
 29 Li   -0.00008   -0.00001   -0.03614
 30 Li    0.00003    0.00007   -0.03614
 31 Li    0.00000   -0.00000   -0.03586
 32 Li   -0.00003    0.00007   -0.03614
 33 Li   -0.00005   -0.00006   -0.03614
 34 Li    0.00005   -0.00006   -0.03614
 35 Li    0.00000    0.00000   -0.03587

Timing:                                      incl.     excl.
-------------------------------------------------------------------
Density initialized from wave functions:    68.849    27.670   0.0% |
 Symmetrize density:                        41.179    41.179   0.0% |
Forces:                                     44.307    44.307   0.0% |
Hamiltonian:                              3249.072     0.004   0.0% |
 Atomic:                                    11.136     7.289   0.0% |
  XC Correction:                             3.847     3.847   0.0% |
 Calculate atomic Hamiltonians:              4.169     4.169   0.0% |
 Communicate:                                2.718     2.718   0.0% |
 Hartree integrate/restrict:                 5.306     5.306   0.0% |
 Initialize Hamiltonian:                     0.000     0.000   0.0% |
 Poisson:                                   72.292     6.931   0.0% |
  Communicate from 1D:                      11.977    11.977   0.0% |
  Communicate from 2D:                      12.165    12.165   0.0% |
  Communicate to 1D:                         8.368     8.368   0.0% |
  Communicate to 2D:                        11.253    11.253   0.0% |
  FFT 1D:                                    9.454     9.454   0.0% |
  FFT 2D:                                   12.144    12.144   0.0% |
 XC 3D grid:                              3152.390   243.142   0.2% |
  VdW-DF integral:                        2909.248     8.375   0.0% |
   Convolution:                            211.528   211.528   0.1% |
   FFT:                                     43.581    43.581   0.0% |
   gather:                                2263.715  2263.715   1.4% ||
   hmm1:                                    31.187    31.187   0.0% |
   hmm2:                                    44.348    44.348   0.0% |
   iFFT:                                    40.343    40.343   0.0% |
   potential:                              249.946     2.364   0.0% |
    collect:                                30.476    30.476   0.0% |
    p1:                                     95.812    95.812   0.1% |
    p2:                                     61.874    61.874   0.0% |
    sum:                                    59.420    59.420   0.0% |
   splines:                                 16.225    16.225   0.0% |
 vbar:                                       1.055     1.055   0.0% |
LCAO initialization:                         5.762     0.027   0.0% |
 LCAO eigensolver:                           0.796     0.001   0.0% |
  Calculate projections:                     0.001     0.001   0.0% |
  DenseAtomicCorrection:                     0.003     0.003   0.0% |
  Distribute overlap matrix:                 0.151     0.151   0.0% |
  Orbital Layouts:                           0.121     0.121   0.0% |
  Potential matrix:                          0.517     0.517   0.0% |
  Sum over cells:                            0.002     0.002   0.0% |
 LCAO to grid:                               4.247     4.247   0.0% |
 Set positions (LCAO WFS):                   0.692     0.177   0.0% |
  Basic WFS set positions:                   0.032     0.032   0.0% |
  Basis functions set positions:             0.001     0.001   0.0% |
  P tci:                                     0.305     0.305   0.0% |
  ST tci:                                    0.121     0.121   0.0% |
  mktci:                                     0.056     0.056   0.0% |
Redistribute:                                0.037     0.037   0.0% |
SCF-cycle:                               155036.967  1739.181   1.1% |
 Davidson:                               26466.077 10314.422   6.5% |--|
  Apply hamiltonian:                      2225.312  2225.312   1.4% ||
  Subspace diag:                          3866.639     0.227   0.0% |
   calc_h_matrix:                         2659.415   510.270   0.3% |
    Apply hamiltonian:                    2149.145  2149.145   1.4% ||
   diagonalize:                            163.880   163.880   0.1% |
   rotate_psi:                            1043.117  1043.117   0.7% |
  calc. matrices:                         8104.485  3959.062   2.5% ||
   Apply hamiltonian:                     4145.423  4145.423   2.6% ||
  diagonalize:                               5.532     5.532   0.0% |
  rotate_psi:                             1949.688  1949.688   1.2% |
 Density:                                 2751.020     0.072   0.0% |
  Atomic density matrices:                 375.677   375.677   0.2% |
  Mix:                                     444.240   444.240   0.3% |
  Multipole moments:                         8.776     8.776   0.0% |
  Pseudo density:                         1922.256   262.681   0.2% |
   Symmetrize density:                    1659.574  1659.574   1.0% |
 Hamiltonian:                            124048.446     0.206   0.0% |
  Atomic:                                  423.221   289.296   0.2% |
   XC Correction:                          133.925   133.925   0.1% |
  Calculate atomic Hamiltonians:           163.784   163.784   0.1% |
  Communicate:                             103.408   103.408   0.1% |
  Hartree integrate/restrict:              227.950   227.950   0.1% |
  Poisson:                                2794.226   263.681   0.2% |
   Communicate from 1D:                    461.168   461.168   0.3% |
   Communicate from 2D:                    468.177   468.177   0.3% |
   Communicate to 1D:                      295.756   295.756   0.2% |
   Communicate to 2D:                      474.841   474.841   0.3% |
   FFT 1D:                                 355.965   355.965   0.2% |
   FFT 2D:                                 474.638   474.638   0.3% |
  XC 3D grid:                            120296.053  9575.217   6.0% |-|
   VdW-DF integral:                      110720.836   304.340   0.2% |
    Convolution:                          8156.089  8156.089   5.1% |-|
    FFT:                                  1690.419  1690.419   1.1% |
    gather:                              86307.772 86307.772  54.4% |---------------------|
    hmm1:                                 1224.786  1224.786   0.8% |
    hmm2:                                 1781.034  1781.034   1.1% |
    iFFT:                                 1646.630  1646.630   1.0% |
    potential:                            9609.730    87.359   0.1% |
     collect:                             1066.441  1066.441   0.7% |
     p1:                                  3708.632  3708.632   2.3% ||
     p2:                                  2514.186  2514.186   1.6% ||
     sum:                                 2233.111  2233.111   1.4% ||
    splines:                                 0.034     0.034   0.0% |
  vbar:                                     39.598    39.598   0.0% |
 Orthonormalize:                            32.243     0.021   0.0% |
  calc_s_matrix:                             6.711     6.711   0.0% |
  inverse-cholesky:                          1.855     1.855   0.0% |
  projections:                               8.181     8.181   0.0% |
  rotate_psi_s:                             15.475    15.475   0.0% |
Set symmetry:                                0.009     0.009   0.0% |
Other:                                     191.477   191.477   0.1% |
-------------------------------------------------------------------
Total:                                             158596.480 100.0%

Memory usage: 1.95 GiB
Date: Fri Jan 20 21:13:29 2023
