
  ___ ___ ___ _ _ _  
 |   |   |_  | | | | 
 | | | | | . | | | | 
 |__ |  _|___|_____|  22.8.0
 |___|_|             

User:   vazumah@c10.hercules
Date:   Tue Jan 17 23:01:47 2023
Arch:   x86_64
Pid:    6630
CWD:    /home/vazumah/Python_projects/LiNRR/autocad_start/slab_experiments/fixed_slabs_big_vacuum/Al/fcc111/substrate
Python: 3.10.8
gpaw:   /home/vazumah/.conda/envs/GPAW/lib/python3.10/site-packages/gpaw
_gpaw:  /home/vazumah/.conda/envs/GPAW/lib/python3.10/site-packages/
        _gpaw.cpython-310-x86_64-linux-gnu.so
ase:    /home/vazumah/.conda/envs/GPAW/lib/python3.10/site-packages/ase (version 3.22.1)
numpy:  /home/vazumah/.conda/envs/GPAW/lib/python3.10/site-packages/numpy (version 1.24.1)
scipy:  /home/vazumah/.conda/envs/GPAW/lib/python3.10/site-packages/scipy (version 1.10.0)
libxc:  5.2.3
units:  Angstrom and eV
cores: 24
OpenMP: True
OMP_NUM_THREADS: 1

Input parameters:
  h: 0.16
  kpts: {size: [4, 4, 1]}
  maxiter: 999
  occupations: {name: fermi-dirac,
                width: 0.05}
  poissonsolver: {dipolelayer: xy}
  symmetry: {point_group: False}
  xc: BEEF-vdW

System changes: positions, numbers, cell, pbc, initial_charges, initial_magmoms 

Initialize ...

species:
  Al:
    name: Aluminium
    id: 0292cae29f5d6237e50f6abdd43a7bdd
    Z: 13.0
    valence: 3
    core: 10
    charge: 0.0
    file: /home/vazumah/.conda/envs/GPAW/share/gpaw/Al.PBE.gz
    compensation charges: {type: gauss,
                           rc: 0.34,
                           lmax: 2}
    cutoffs: {filter: 1.91,
              core: 2.36}
    valence states:
      #              energy  rcut
      - 3s(2.00)    -7.753   1.085
      - 3p(1.00)    -2.712   1.085
      -  s          19.459   1.085
      -  p          24.499   1.085
      -  d           0.000   1.085
  
    # Using partial waves for Al as LCAO basis

Reference energy: -237723.237536  # eV

Spin-paired calculation

Convergence criteria:
 Maximum [total energy] change in last 3 cyles: 0.0005 eV / electron
 Maximum integral of absolute [dens]ity change: 0.0001 electrons / valence electron
 Maximum integral of absolute [eigenst]ate change: 4e-08 eV^2 / valence electron
 Maximum number of scf [iter]ations: 999
 (Square brackets indicate name in SCF output, whereas a 'c' in
 the SCF output indicates the quantity has converged.)

Symmetries present (total): 1

  ( 1  0  0)
  ( 0  1  0)
  ( 0  0  1)

16 k-points: 4 x 4 x 1 Monkhorst-Pack grid
8 k-points in the irreducible part of the Brillouin zone
       k-points in crystal coordinates                weights
   0:     0.12500000   -0.37500000    0.00000000          2/16
   1:     0.12500000   -0.12500000    0.00000000          2/16
   2:     0.12500000    0.12500000    0.00000000          2/16
   3:     0.12500000    0.37500000    0.00000000          2/16
   4:     0.37500000   -0.37500000    0.00000000          2/16
   5:     0.37500000   -0.12500000    0.00000000          2/16
   6:     0.37500000    0.12500000    0.00000000          2/16
   7:     0.37500000    0.37500000    0.00000000          2/16

Wave functions: Uniform real-space grid
  Kinetic energy operator: 8*3+1=25 point O(h^6) finite-difference Laplacian
  ScaLapack parameters: grid=1x1, blocksize=None
  Wavefunction extrapolation:
    Improved wavefunction reuse through dual PAW basis 

Occupation numbers: Fermi-Dirac:
  width: 0.0500  # eV
 

Eigensolver
   Davidson(niter=2) 

Densities:
  Coarse grid: 48*48*232 grid
  Fine grid: 96*96*464 grid
  Total Charge: 0.000000 

Density mixing:
  Method: separate
  Backend: pulay
  Linear mixing parameter: 0.05
  old densities: 5
  Damping of long wavelength oscillations: 50 

Hamiltonian:
  XC and Coulomb potentials evaluated on a 96*96*464 grid
  Using the BEEF-vdW Exchange-Correlation functional
  Interpolation: tri-quintic (5. degree polynomial)
  Poisson solver: FastPoissonSolver using
    Stencil: 8*3+1=25 point O(h^6) finite-difference Laplacian
    FFT axes: [0, 1]
    FST axes: [2]

Dipole correction along z-axis 

XC parameters: BEEF-vdW with 2 nearest neighbor stencil

Memory estimate:
  Process memory now: 205.71 MiB
  Calculator: 537.16 MiB
    Density: 113.58 MiB
      Arrays: 35.19 MiB
      Localized functions: 64.85 MiB
      Mixer: 13.54 MiB
    Hamiltonian: 27.80 MiB
      Arrays: 23.01 MiB
      XC: 0.00 MiB
      Poisson: 0.00 MiB
      vbar: 4.79 MiB
    Wavefunctions: 395.79 MiB
      Arrays psit_nG: 186.79 MiB
      Eigensolver: 201.05 MiB
      Projections: 0.16 MiB
      Projectors: 7.79 MiB

Total number of cores used: 24
Parallelization over k-points: 8
Domain decomposition: 1 x 1 x 3

Number of atoms: 36
Number of atomic orbitals: 144
Number of bands in calculation: 69
Number of valence electrons: 108
Bands to converge: occupied

... initialized

Initializing position-dependent things.

Density initialized from atomic densities
Creating initial wave functions:
  69 bands from LCAO basis set

                                             
                                             
                                             
                                             
                                             
                 Al     Al     Al            
                                             
            Al    AAl    AAl    Al           
       Al    AAl    AAl    Al                
                                             
        Al     Al    AAl    Al     Al        
                                             
                Al     Al     Al             
                                             
           Al    AAl    AAl    Al            
                                             
            Al     Al     Al                 
       Al     Al     Al                      
                                             
                                             
                                             
                                             

Positions:
   0 Al     0.000000    0.000000   15.000000    ( 0.0000,  0.0000,  0.0000)
   1 Al     2.863782    0.000000   15.000000    ( 0.0000,  0.0000,  0.0000)
   2 Al     5.727565    0.000000   15.000000    ( 0.0000,  0.0000,  0.0000)
   3 Al     1.431891    2.480108   15.000000    ( 0.0000,  0.0000,  0.0000)
   4 Al     4.295674    2.480108   15.000000    ( 0.0000,  0.0000,  0.0000)
   5 Al     7.159456    2.480108   15.000000    ( 0.0000,  0.0000,  0.0000)
   6 Al     2.863782    4.960217   15.000000    ( 0.0000,  0.0000,  0.0000)
   7 Al     5.727565    4.960217   15.000000    ( 0.0000,  0.0000,  0.0000)
   8 Al     8.591347    4.960217   15.000000    ( 0.0000,  0.0000,  0.0000)
   9 Al     1.431891    0.826703   17.338269    ( 0.0000,  0.0000,  0.0000)
  10 Al     4.295674    0.826703   17.338269    ( 0.0000,  0.0000,  0.0000)
  11 Al     7.159456    0.826703   17.338269    ( 0.0000,  0.0000,  0.0000)
  12 Al     2.863782    3.306811   17.338269    ( 0.0000,  0.0000,  0.0000)
  13 Al     5.727565    3.306811   17.338269    ( 0.0000,  0.0000,  0.0000)
  14 Al     8.591347    3.306811   17.338269    ( 0.0000,  0.0000,  0.0000)
  15 Al     4.295674    5.786920   17.338269    ( 0.0000,  0.0000,  0.0000)
  16 Al     7.159456    5.786920   17.338269    ( 0.0000,  0.0000,  0.0000)
  17 Al    10.023239    5.786920   17.338269    ( 0.0000,  0.0000,  0.0000)
  18 Al     0.000000    1.653406   19.676537    ( 0.0000,  0.0000,  0.0000)
  19 Al     2.863782    1.653406   19.676537    ( 0.0000,  0.0000,  0.0000)
  20 Al     5.727565    1.653406   19.676537    ( 0.0000,  0.0000,  0.0000)
  21 Al     1.431891    4.133514   19.676537    ( 0.0000,  0.0000,  0.0000)
  22 Al     4.295674    4.133514   19.676537    ( 0.0000,  0.0000,  0.0000)
  23 Al     7.159456    4.133514   19.676537    ( 0.0000,  0.0000,  0.0000)
  24 Al     2.863782    6.613622   19.676537    ( 0.0000,  0.0000,  0.0000)
  25 Al     5.727565    6.613622   19.676537    ( 0.0000,  0.0000,  0.0000)
  26 Al     8.591347    6.613622   19.676537    ( 0.0000,  0.0000,  0.0000)
  27 Al     0.000000    0.000000   22.014806    ( 0.0000,  0.0000,  0.0000)
  28 Al     2.863782    0.000000   22.014806    ( 0.0000,  0.0000,  0.0000)
  29 Al     5.727565    0.000000   22.014806    ( 0.0000,  0.0000,  0.0000)
  30 Al     1.431891    2.480108   22.014806    ( 0.0000,  0.0000,  0.0000)
  31 Al     4.295674    2.480108   22.014806    ( 0.0000,  0.0000,  0.0000)
  32 Al     7.159456    2.480108   22.014806    ( 0.0000,  0.0000,  0.0000)
  33 Al     2.863782    4.960217   22.014806    ( 0.0000,  0.0000,  0.0000)
  34 Al     5.727565    4.960217   22.014806    ( 0.0000,  0.0000,  0.0000)
  35 Al     8.591347    4.960217   22.014806    ( 0.0000,  0.0000,  0.0000)

Unit cell:
           periodic     x           y           z      points  spacing
  1. axis:    yes    8.591347    0.000000    0.000000    48     0.1550
  2. axis:    yes    4.295674    7.440325    0.000000    48     0.1550
  3. axis:    no     0.000000    0.000000   37.014806   232     0.1595

  Lengths:   8.591347   8.591347  37.014806
  Angles:   90.000000  90.000000  60.000000

Effective grid spacing dv^(1/3) = 0.1642

     iter     time        total  log10-change:
                         energy  eigst   dens
iter:   1 23:05:55 -1000.234522
iter:   2 23:09:02 -1000.698512  +0.25  -0.88
iter:   3 23:12:08 -1000.245764  -0.02  -0.89
iter:   4 23:15:17 -1000.118100  -0.44  -0.96
Writing to output.gpw (mode='')

iter:   5 23:18:25 -1001.966466  +0.06  -1.08
iter:   6 23:21:32 -1002.729848  -0.24  -1.18
iter:   7 23:24:29 -1000.620043  -0.11  -1.08
iter:   8 23:27:31 -1000.273282  -0.24  -1.44
iter:   9 23:30:45 -1000.239463  -1.36  -1.99
Writing to output.gpw (mode='')

iter:  10 23:34:01 -1000.239794c -1.61  -2.24
iter:  11 23:37:07 -1000.259280c -1.81  -2.35
iter:  12 23:40:12 -1000.252619c -2.38  -2.17
iter:  13 23:43:15 -1000.250812c -1.89  -2.22
iter:  14 23:46:16 -1000.238796c -2.16  -2.32
Writing to output.gpw (mode='')

iter:  15 23:49:18 -1000.240706c -1.98  -2.80
iter:  16 23:52:19 -1000.240228c -2.94  -2.78
iter:  17 23:55:27 -1000.240221c -3.65  -2.89
iter:  18 23:58:33 -1000.240457c -2.63  -2.91
iter:  19 00:01:32 -1000.239473c -3.51  -2.88
Writing to output.gpw (mode='')

iter:  20 00:04:42 -1000.239476c -3.36  -3.35
iter:  21 00:07:42 -1000.239528c -4.59  -3.49
iter:  22 00:10:41 -1000.239726c -4.08  -3.55
iter:  23 00:13:41 -1000.239504c -4.15  -3.22
iter:  24 00:16:50 -1000.239542c -5.14  -3.94
Writing to output.gpw (mode='')

iter:  25 00:19:52 -1000.239508c -4.30  -3.68
iter:  26 00:22:54 -1000.239502c -4.87  -3.68
iter:  27 00:25:56 -1000.239503c -5.42  -4.16c
iter:  28 00:29:07 -1000.239504c -5.93  -4.23c
iter:  29 00:32:12 -1000.239509c -5.37  -4.29c
Writing to output.gpw (mode='')

iter:  30 00:35:21 -1000.239509c -5.60  -3.94
iter:  31 00:38:20 -1000.239509c -6.05  -4.68c
iter:  32 00:41:23 -1000.239508c -6.57  -4.88c
iter:  33 00:44:22 -1000.239508c -6.81  -4.91c
iter:  34 00:47:23 -1000.239509c -6.99  -4.96c
Writing to output.gpw (mode='')

iter:  35 00:50:21 -1000.239510c -7.27  -5.00c
iter:  36 00:53:19 -1000.239509c -7.13  -5.18c
iter:  37 00:56:31 -1000.239510c -7.46c -4.91c

Converged after 37 iterations.

Dipole moment: (-8.338004, -4.813948, -0.000005) |e|*Ang

Energy contributions relative to reference atoms: (reference = -237723.237536)

Kinetic:        +68.461634
Potential:      -17.596075
External:        +0.000000
XC:            -1051.039594
Entropy (-ST):   -0.115335
Local:           -0.007807
--------------------------
Free energy:   -1000.297177
Extrapolated:  -1000.239510

Dipole-layer corrected work functions: 4.285602, 4.285616 eV

Showing only first 2 kpts
 Kpt  Band  Eigenvalues  Occupancy
  0    52     -4.46217    1.94313
  0    53     -4.30556    1.19695
  0    54     -4.00256    0.00693
  0    55     -3.98398    0.00479

  1    52     -4.51974    1.98166
  1    53     -4.51974    1.98166
  1    54     -4.43225    1.89889
  1    55     -4.23110    0.50319


Fermi level: -4.28561

No gap
Writing to output.gpw (mode='')


Forces in eV/Ang:
  0 Al   -0.00022   -0.00013   -0.07710
  1 Al   -0.00022   -0.00013   -0.07710
  2 Al   -0.00022   -0.00013   -0.07710
  3 Al   -0.00022   -0.00013   -0.07710
  4 Al   -0.00022   -0.00013   -0.07710
  5 Al   -0.00022   -0.00013   -0.07710
  6 Al   -0.00022   -0.00013   -0.07710
  7 Al   -0.00022   -0.00013   -0.07710
  8 Al   -0.00022   -0.00013   -0.07710
  9 Al    0.00442    0.00255    0.12111
 10 Al    0.00442    0.00255    0.12111
 11 Al    0.00442    0.00255    0.12111
 12 Al    0.00442    0.00255    0.12111
 13 Al    0.00442    0.00255    0.12111
 14 Al    0.00442    0.00255    0.12111
 15 Al    0.00442    0.00255    0.12111
 16 Al    0.00442    0.00255    0.12111
 17 Al    0.00442    0.00255    0.12111
 18 Al   -0.00442   -0.00255   -0.12110
 19 Al   -0.00442   -0.00255   -0.12110
 20 Al   -0.00442   -0.00255   -0.12110
 21 Al   -0.00442   -0.00255   -0.12110
 22 Al   -0.00442   -0.00255   -0.12110
 23 Al   -0.00442   -0.00255   -0.12110
 24 Al   -0.00442   -0.00255   -0.12110
 25 Al   -0.00442   -0.00255   -0.12110
 26 Al   -0.00442   -0.00255   -0.12110
 27 Al    0.00022    0.00013    0.07712
 28 Al    0.00022    0.00013    0.07712
 29 Al    0.00022    0.00013    0.07712
 30 Al    0.00022    0.00013    0.07712
 31 Al    0.00022    0.00013    0.07712
 32 Al    0.00022    0.00013    0.07712
 33 Al    0.00022    0.00013    0.07712
 34 Al    0.00022    0.00013    0.07712
 35 Al    0.00022    0.00013    0.07712

System changes: positions 

Initializing position-dependent things.

Density initialized from wave functions
                                             
                                             
                                             
                                             
                                             
                 Al     Al     Al            
                                             
            Al    AAl    AAl    Al           
       Al    AAl    AAl    Al                
                                             
        Al     Al    AAl    Al     Al        
                                             
                Al     Al     Al             
                                             
           Al    AAl    AAl    Al            
                                             
            Al     Al     Al                 
       Al     Al     Al                      
                                             
                                             
                                             
                                             

Positions:
   0 Al     0.000000    0.000000   15.000000    ( 0.0000,  0.0000,  0.0000)
   1 Al     2.863782    0.000000   15.000000    ( 0.0000,  0.0000,  0.0000)
   2 Al     5.727565    0.000000   15.000000    ( 0.0000,  0.0000,  0.0000)
   3 Al     1.431891    2.480108   15.000000    ( 0.0000,  0.0000,  0.0000)
   4 Al     4.295674    2.480108   15.000000    ( 0.0000,  0.0000,  0.0000)
   5 Al     7.159456    2.480108   15.000000    ( 0.0000,  0.0000,  0.0000)
   6 Al     2.863782    4.960217   15.000000    ( 0.0000,  0.0000,  0.0000)
   7 Al     5.727565    4.960217   15.000000    ( 0.0000,  0.0000,  0.0000)
   8 Al     8.591347    4.960217   15.000000    ( 0.0000,  0.0000,  0.0000)
   9 Al     1.431891    0.826703   17.338269    ( 0.0000,  0.0000,  0.0000)
  10 Al     4.295674    0.826703   17.338269    ( 0.0000,  0.0000,  0.0000)
  11 Al     7.159456    0.826703   17.338269    ( 0.0000,  0.0000,  0.0000)
  12 Al     2.863782    3.306811   17.338269    ( 0.0000,  0.0000,  0.0000)
  13 Al     5.727565    3.306811   17.338269    ( 0.0000,  0.0000,  0.0000)
  14 Al     8.591347    3.306811   17.338269    ( 0.0000,  0.0000,  0.0000)
  15 Al     4.295674    5.786920   17.338269    ( 0.0000,  0.0000,  0.0000)
  16 Al     7.159456    5.786920   17.338269    ( 0.0000,  0.0000,  0.0000)
  17 Al    10.023239    5.786920   17.338269    ( 0.0000,  0.0000,  0.0000)
  18 Al    -0.000063    1.653369   19.674807    ( 0.0000,  0.0000,  0.0000)
  19 Al     2.863719    1.653369   19.674807    ( 0.0000,  0.0000,  0.0000)
  20 Al     5.727502    1.653369   19.674807    ( 0.0000,  0.0000,  0.0000)
  21 Al     1.431828    4.133477   19.674807    ( 0.0000,  0.0000,  0.0000)
  22 Al     4.295611    4.133478   19.674807    ( 0.0000,  0.0000,  0.0000)
  23 Al     7.159393    4.133478   19.674807    ( 0.0000,  0.0000,  0.0000)
  24 Al     2.863719    6.613586   19.674807    ( 0.0000,  0.0000,  0.0000)
  25 Al     5.727502    6.613586   19.674807    ( 0.0000,  0.0000,  0.0000)
  26 Al     8.591284    6.613586   19.674807    ( 0.0000,  0.0000,  0.0000)
  27 Al     0.000003    0.000002   22.015907    ( 0.0000,  0.0000,  0.0000)
  28 Al     2.863786    0.000002   22.015907    ( 0.0000,  0.0000,  0.0000)
  29 Al     5.727568    0.000002   22.015907    ( 0.0000,  0.0000,  0.0000)
  30 Al     1.431894    2.480110   22.015907    ( 0.0000,  0.0000,  0.0000)
  31 Al     4.295677    2.480110   22.015907    ( 0.0000,  0.0000,  0.0000)
  32 Al     7.159459    2.480110   22.015907    ( 0.0000,  0.0000,  0.0000)
  33 Al     2.863786    4.960219   22.015907    ( 0.0000,  0.0000,  0.0000)
  34 Al     5.727568    4.960219   22.015907    ( 0.0000,  0.0000,  0.0000)
  35 Al     8.591351    4.960219   22.015907    ( 0.0000,  0.0000,  0.0000)

Unit cell:
           periodic     x           y           z      points  spacing
  1. axis:    yes    8.591347    0.000000    0.000000    48     0.1550
  2. axis:    yes    4.295674    7.440325    0.000000    48     0.1550
  3. axis:    no     0.000000    0.000000   37.014806   232     0.1595

  Lengths:   8.591347   8.591347  37.014806
  Angles:   90.000000  90.000000  60.000000

Effective grid spacing dv^(1/3) = 0.1642

     iter     time        total  log10-change:
                         energy  eigst   dens
iter:   1 01:00:55 -1000.246019  -2.92
iter:   2 01:03:59 -1000.247890  -2.44  -2.52
iter:   3 01:07:02 -1000.242133c -3.19  -2.47
iter:   4 01:10:09 -1000.242392c -3.15  -3.15
Writing to output.gpw (mode='')

iter:   5 01:13:17 -1000.242190c -4.03  -3.11
iter:   6 01:16:26 -1000.242170c -4.65  -3.61
iter:   7 01:19:29 -1000.242176c -5.16  -3.97
iter:   8 01:22:40 -1000.242188c -5.06  -4.10c
iter:   9 01:25:40 -1000.242183c -5.49  -4.07c
Writing to output.gpw (mode='')

iter:  10 01:28:38 -1000.242184c -6.06  -4.46c
iter:  11 01:31:41 -1000.242184c -6.03  -4.61c
iter:  12 01:34:53 -1000.242183c -6.38  -4.57c
iter:  13 01:38:05 -1000.242183c -6.35  -4.56c
iter:  14 01:41:08 -1000.242186c -6.10  -4.79c
Writing to output.gpw (mode='')

iter:  15 01:44:19 -1000.242185c -6.92  -4.60c
iter:  16 01:47:27 -1000.242185c -6.38  -4.91c
iter:  17 01:50:33 -1000.242185c -7.61c -4.92c

Converged after 17 iterations.

Dipole moment: (-8.338296, -4.814117, 0.000284) |e|*Ang

Energy contributions relative to reference atoms: (reference = -237723.237536)

Kinetic:        +68.323654
Potential:      -17.493570
External:        +0.000000
XC:            -1051.005868
Entropy (-ST):   -0.115014
Local:           -0.008894
--------------------------
Free energy:   -1000.299692
Extrapolated:  -1000.242185

Dipole-layer corrected work functions: 4.285736, 4.284931 eV

Showing only first 2 kpts
 Kpt  Band  Eigenvalues  Occupancy
  0    52     -4.45941    1.94031
  0    53     -4.30573    1.20118
  0    54     -4.00272    0.00699
  0    55     -3.98338    0.00476

  1    52     -4.51979    1.98178
  1    53     -4.51979    1.98178
  1    54     -4.42929    1.89360
  1    55     -4.23157    0.50880


Fermi level: -4.28533

No gap
Writing to output.gpw (mode='')


Forces in eV/Ang:
  0 Al   -0.00018   -0.00010   -0.07691
  1 Al   -0.00018   -0.00010   -0.07691
  2 Al   -0.00018   -0.00010   -0.07691
  3 Al   -0.00018   -0.00010   -0.07691
  4 Al   -0.00018   -0.00010   -0.07691
  5 Al   -0.00018   -0.00010   -0.07691
  6 Al   -0.00018   -0.00010   -0.07691
  7 Al   -0.00018   -0.00010   -0.07691
  8 Al   -0.00018   -0.00010   -0.07691
  9 Al    0.00437    0.00252    0.11609
 10 Al    0.00437    0.00252    0.11609
 11 Al    0.00437    0.00252    0.11609
 12 Al    0.00437    0.00252    0.11609
 13 Al    0.00437    0.00252    0.11609
 14 Al    0.00437    0.00252    0.11609
 15 Al    0.00437    0.00252    0.11609
 16 Al    0.00437    0.00252    0.11609
 17 Al    0.00437    0.00252    0.11609
 18 Al   -0.00432   -0.00250   -0.10823
 19 Al   -0.00432   -0.00250   -0.10823
 20 Al   -0.00432   -0.00250   -0.10823
 21 Al   -0.00432   -0.00250   -0.10823
 22 Al   -0.00432   -0.00250   -0.10823
 23 Al   -0.00432   -0.00250   -0.10823
 24 Al   -0.00432   -0.00250   -0.10823
 25 Al   -0.00432   -0.00250   -0.10823
 26 Al   -0.00432   -0.00250   -0.10823
 27 Al    0.00019    0.00011    0.06955
 28 Al    0.00019    0.00011    0.06955
 29 Al    0.00019    0.00011    0.06955
 30 Al    0.00019    0.00011    0.06955
 31 Al    0.00019    0.00011    0.06955
 32 Al    0.00019    0.00011    0.06955
 33 Al    0.00019    0.00011    0.06955
 34 Al    0.00019    0.00011    0.06955
 35 Al    0.00019    0.00011    0.06955

System changes: positions 

Initializing position-dependent things.

Density initialized from wave functions
                                             
                                             
                                             
                                             
                                             
                 Al     Al     Al            
                                             
            Al    AAl    AAl    Al           
       Al    AAl    AAl    Al                
                                             
        Al     Al    AAl    Al     Al        
                                             
                Al     Al     Al             
                                             
           Al    AAl    AAl    Al            
                                             
            Al     Al     Al                 
       Al     Al     Al                      
                                             
                                             
                                             
                                             

Positions:
   0 Al     0.000000    0.000000   15.000000    ( 0.0000,  0.0000,  0.0000)
   1 Al     2.863782    0.000000   15.000000    ( 0.0000,  0.0000,  0.0000)
   2 Al     5.727565    0.000000   15.000000    ( 0.0000,  0.0000,  0.0000)
   3 Al     1.431891    2.480108   15.000000    ( 0.0000,  0.0000,  0.0000)
   4 Al     4.295674    2.480108   15.000000    ( 0.0000,  0.0000,  0.0000)
   5 Al     7.159456    2.480108   15.000000    ( 0.0000,  0.0000,  0.0000)
   6 Al     2.863782    4.960217   15.000000    ( 0.0000,  0.0000,  0.0000)
   7 Al     5.727565    4.960217   15.000000    ( 0.0000,  0.0000,  0.0000)
   8 Al     8.591347    4.960217   15.000000    ( 0.0000,  0.0000,  0.0000)
   9 Al     1.431891    0.826703   17.338269    ( 0.0000,  0.0000,  0.0000)
  10 Al     4.295674    0.826703   17.338269    ( 0.0000,  0.0000,  0.0000)
  11 Al     7.159456    0.826703   17.338269    ( 0.0000,  0.0000,  0.0000)
  12 Al     2.863782    3.306811   17.338269    ( 0.0000,  0.0000,  0.0000)
  13 Al     5.727565    3.306811   17.338269    ( 0.0000,  0.0000,  0.0000)
  14 Al     8.591347    3.306811   17.338269    ( 0.0000,  0.0000,  0.0000)
  15 Al     4.295674    5.786920   17.338269    ( 0.0000,  0.0000,  0.0000)
  16 Al     7.159456    5.786920   17.338269    ( 0.0000,  0.0000,  0.0000)
  17 Al    10.023239    5.786920   17.338269    ( 0.0000,  0.0000,  0.0000)
  18 Al    -0.000462    1.653139   19.664818    ( 0.0000,  0.0000,  0.0000)
  19 Al     2.863321    1.653139   19.664818    ( 0.0000,  0.0000,  0.0000)
  20 Al     5.727103    1.653139   19.664818    ( 0.0000,  0.0000,  0.0000)
  21 Al     1.431429    4.133247   19.664818    ( 0.0000,  0.0000,  0.0000)
  22 Al     4.295212    4.133247   19.664818    ( 0.0000,  0.0000,  0.0000)
  23 Al     7.158994    4.133247   19.664818    ( 0.0000,  0.0000,  0.0000)
  24 Al     2.863321    6.613356   19.664818    ( 0.0000,  0.0000,  0.0000)
  25 Al     5.727103    6.613356   19.664818    ( 0.0000,  0.0000,  0.0000)
  26 Al     8.590886    6.613356   19.664818    ( 0.0000,  0.0000,  0.0000)
  27 Al     0.000021    0.000012   22.022327    ( 0.0000,  0.0000,  0.0000)
  28 Al     2.863803    0.000012   22.022327    ( 0.0000,  0.0000,  0.0000)
  29 Al     5.727586    0.000012   22.022327    ( 0.0000,  0.0000,  0.0000)
  30 Al     1.431912    2.480120   22.022327    ( 0.0000,  0.0000,  0.0000)
  31 Al     4.295694    2.480120   22.022327    ( 0.0000,  0.0000,  0.0000)
  32 Al     7.159477    2.480120   22.022327    ( 0.0000,  0.0000,  0.0000)
  33 Al     2.863803    4.960229   22.022327    ( 0.0000,  0.0000,  0.0000)
  34 Al     5.727586    4.960229   22.022327    ( 0.0000,  0.0000,  0.0000)
  35 Al     8.591368    4.960229   22.022327    ( 0.0000,  0.0000,  0.0000)

Unit cell:
           periodic     x           y           z      points  spacing
  1. axis:    yes    8.591347    0.000000    0.000000    48     0.1550
  2. axis:    yes    4.295674    7.440325    0.000000    48     0.1550
  3. axis:    no     0.000000    0.000000   37.014806   232     0.1595

  Lengths:   8.591347   8.591347  37.014806
  Angles:   90.000000  90.000000  60.000000

Effective grid spacing dv^(1/3) = 0.1642

     iter     time        total  log10-change:
                         energy  eigst   dens
iter:   1 01:54:55 -1000.381074  -1.42
iter:   2 01:57:59 -1000.443282  -0.91  -1.76
iter:   3 02:01:11 -1000.252711  -1.75  -1.71
iter:   4 02:04:17 -1000.259370  -1.66  -2.38
Writing to output.gpw (mode='')

iter:   5 02:07:27 -1000.253058c -2.52  -2.36
iter:   6 02:10:43 -1000.252102c -3.15  -2.82
iter:   7 02:13:52 -1000.252170c -3.57  -3.20
iter:   8 02:16:58 -1000.252224c -3.60  -3.34
iter:   9 02:20:06 -1000.252198c -4.16  -3.56
Writing to output.gpw (mode='')

iter:  10 02:23:16 -1000.252211c -4.58  -3.83
iter:  11 02:26:25 -1000.252237c -4.49  -3.88
iter:  12 02:29:29 -1000.252231c -5.07  -3.84
iter:  13 02:32:36 -1000.252236c -5.41  -4.07c
iter:  14 02:35:36 -1000.252241c -5.38  -4.08c
Writing to output.gpw (mode='')

iter:  15 02:38:41 -1000.252252c -5.39  -4.17c
iter:  16 02:41:36 -1000.252250c -5.86  -4.32c
iter:  17 02:44:38 -1000.252249c -6.01  -4.57c
iter:  18 02:47:52 -1000.252250c -6.35  -4.70c
iter:  19 02:51:03 -1000.252250c -6.42  -4.76c
Writing to output.gpw (mode='')

iter:  20 02:54:11 -1000.252247c -6.78  -4.81c
iter:  21 02:57:11 -1000.252248c -6.82  -4.69c
iter:  22 03:00:21 -1000.252248c -6.98  -4.96c
iter:  23 03:03:24 -1000.252247c -7.23  -4.98c
iter:  24 03:06:20 -1000.252248c -7.18  -5.04c
Writing to output.gpw (mode='')

iter:  25 03:09:29 -1000.252249c -7.40c -5.41c

Converged after 25 iterations.

Dipole moment: (-8.341173, -4.815778, 0.001560) |e|*Ang

Energy contributions relative to reference atoms: (reference = -237723.237536)

Kinetic:        +67.566622
Potential:      -16.937949
External:        +0.000000
XC:            -1050.816380
Entropy (-ST):   -0.113238
Local:           -0.007922
--------------------------
Free energy:   -1000.308868
Extrapolated:  -1000.252249

Dipole-layer corrected work functions: 4.285940, 4.281523 eV

Showing only first 2 kpts
 Kpt  Band  Eigenvalues  Occupancy
  0    52     -4.44327    1.92097
  0    53     -4.30664    1.22516
  0    54     -4.00361    0.00735
  0    55     -3.98024    0.00461

  1    52     -4.52045    1.98258
  1    53     -4.52045    1.98258
  1    54     -4.41181    1.85669
  1    55     -4.23390    0.53920


Fermi level: -4.28373

No gap

Forces in eV/Ang:
  0 Al   -0.00016   -0.00010   -0.07613
  1 Al   -0.00016   -0.00010   -0.07613
  2 Al   -0.00016   -0.00010   -0.07613
  3 Al   -0.00016   -0.00010   -0.07613
  4 Al   -0.00016   -0.00010   -0.07613
  5 Al   -0.00016   -0.00010   -0.07613
  6 Al   -0.00016   -0.00010   -0.07613
  7 Al   -0.00016   -0.00010   -0.07613
  8 Al   -0.00016   -0.00010   -0.07613
  9 Al    0.00412    0.00238    0.08671
 10 Al    0.00412    0.00238    0.08671
 11 Al    0.00412    0.00238    0.08671
 12 Al    0.00412    0.00238    0.08671
 13 Al    0.00412    0.00238    0.08671
 14 Al    0.00412    0.00238    0.08671
 15 Al    0.00412    0.00238    0.08671
 16 Al    0.00412    0.00238    0.08671
 17 Al    0.00412    0.00238    0.08671
 18 Al   -0.00364   -0.00210   -0.03409
 19 Al   -0.00364   -0.00210   -0.03409
 20 Al   -0.00364   -0.00210   -0.03409
 21 Al   -0.00364   -0.00210   -0.03409
 22 Al   -0.00364   -0.00210   -0.03409
 23 Al   -0.00364   -0.00210   -0.03409
 24 Al   -0.00364   -0.00210   -0.03409
 25 Al   -0.00364   -0.00210   -0.03409
 26 Al   -0.00364   -0.00210   -0.03409
 27 Al   -0.00011   -0.00007    0.02679
 28 Al   -0.00011   -0.00007    0.02679
 29 Al   -0.00011   -0.00007    0.02679
 30 Al   -0.00011   -0.00007    0.02679
 31 Al   -0.00011   -0.00007    0.02679
 32 Al   -0.00011   -0.00007    0.02679
 33 Al   -0.00011   -0.00007    0.02679
 34 Al   -0.00011   -0.00007    0.02679
 35 Al   -0.00011   -0.00007    0.02679

Timing:                                      incl.     excl.
-------------------------------------------------------------------
Density initialized from wave functions:     8.450     8.450   0.1% |
 Symmetrize density:                         0.000     0.000   0.0% |
Forces:                                     59.332    59.332   0.4% |
Hamiltonian:                               279.236     0.001   0.0% |
 Atomic:                                     0.646     0.021   0.0% |
  XC Correction:                             0.625     0.625   0.0% |
 Calculate atomic Hamiltonians:              1.483     1.483   0.0% |
 Communicate:                                2.366     2.366   0.0% |
 Hartree integrate/restrict:                 0.574     0.574   0.0% |
 Initialize Hamiltonian:                     0.000     0.000   0.0% |
 Poisson:                                   11.315     5.322   0.0% |
  Communicate from 1D:                       0.957     0.957   0.0% |
  Communicate from 2D:                       1.434     1.434   0.0% |
  Communicate to 1D:                         0.354     0.354   0.0% |
  Communicate to 2D:                         1.204     1.204   0.0% |
  FFT 1D:                                    1.048     1.048   0.0% |
  FFT 2D:                                    0.998     0.998   0.0% |
 XC 3D grid:                               262.739    27.931   0.2% |
  VdW-DF integral:                         234.808     0.384   0.0% |
   Convolution:                             10.563    10.563   0.1% |
   FFT:                                      1.811     1.811   0.0% |
   gather:                                 182.574   182.574   1.2% |
   hmm1:                                     2.582     2.582   0.0% |
   hmm2:                                     3.167     3.167   0.0% |
   iFFT:                                     2.375     2.375   0.0% |
   potential:                               20.327     0.238   0.0% |
    collect:                                 1.772     1.772   0.0% |
    p1:                                      8.115     8.115   0.1% |
    p2:                                      5.537     5.537   0.0% |
    sum:                                     4.665     4.665   0.0% |
   splines:                                 11.025    11.025   0.1% |
 vbar:                                       0.112     0.112   0.0% |
LCAO initialization:                        14.975     0.043   0.0% |
 LCAO eigensolver:                           4.577     0.001   0.0% |
  Calculate projections:                     0.000     0.000   0.0% |
  DenseAtomicCorrection:                     0.000     0.000   0.0% |
  Distribute overlap matrix:                 4.432     4.432   0.0% |
  Orbital Layouts:                           0.122     0.122   0.0% |
  Potential matrix:                          0.018     0.018   0.0% |
  Sum over cells:                            0.004     0.004   0.0% |
 LCAO to grid:                               8.190     8.190   0.1% |
 Set positions (LCAO WFS):                   2.164     1.844   0.0% |
  Basic WFS set positions:                   0.003     0.003   0.0% |
  Basis functions set positions:             0.001     0.001   0.0% |
  P tci:                                     0.001     0.001   0.0% |
  ST tci:                                    0.193     0.193   0.0% |
  mktci:                                     0.124     0.124   0.0% |
Redistribute:                                0.002     0.002   0.0% |
SCF-cycle:                               14410.166   247.210   1.7% ||
 Davidson:                                7563.218  2337.576  15.7% |-----|
  Apply hamiltonian:                       409.789   409.789   2.8% ||
  Subspace diag:                          1010.444     0.016   0.0% |
   calc_h_matrix:                          602.388   207.647   1.4% ||
    Apply hamiltonian:                     394.741   394.741   2.7% ||
   diagonalize:                             26.448    26.448   0.2% |
   rotate_psi:                             381.591   381.591   2.6% ||
  calc. matrices:                         3040.925  1425.739   9.6% |---|
   Apply hamiltonian:                     1615.186  1615.186  10.9% |---|
  diagonalize:                               5.925     5.925   0.0% |
  rotate_psi:                              758.559   758.559   5.1% |-|
 Density:                                   95.794     0.016   0.0% |
  Atomic density matrices:                  26.931    26.931   0.2% |
  Mix:                                      21.306    21.306   0.1% |
  Multipole moments:                         0.412     0.412   0.0% |
  Pseudo density:                           47.128    47.113   0.3% |
   Symmetrize density:                       0.016     0.016   0.0% |
 Hamiltonian:                             6476.295     0.015   0.0% |
  Atomic:                                   20.685     3.331   0.0% |
   XC Correction:                           17.353    17.353   0.1% |
  Calculate atomic Hamiltonians:            40.778    40.778   0.3% |
  Communicate:                              41.996    41.996   0.3% |
  Hartree integrate/restrict:               13.222    13.222   0.1% |
  Poisson:                                 295.551   131.259   0.9% |
   Communicate from 1D:                     22.447    22.447   0.2% |
   Communicate from 2D:                     35.977    35.977   0.2% |
   Communicate to 1D:                        8.553     8.553   0.1% |
   Communicate to 2D:                       34.227    34.227   0.2% |
   FFT 1D:                                  32.869    32.869   0.2% |
   FFT 2D:                                  30.219    30.219   0.2% |
  XC 3D grid:                             6060.879   704.126   4.7% |-|
   VdW-DF integral:                       5356.753     9.986   0.1% |
    Convolution:                           275.665   275.665   1.9% ||
    FFT:                                    52.528    52.528   0.4% |
    gather:                               4279.491  4279.491  28.8% |-----------|
    hmm1:                                   72.631    72.631   0.5% |
    hmm2:                                   95.483    95.483   0.6% |
    iFFT:                                   56.513    56.513   0.4% |
    potential:                             514.456     5.776   0.0% |
     collect:                               46.993    46.993   0.3% |
     p1:                                   201.896   201.896   1.4% ||
     p2:                                   132.504   132.504   0.9% |
     sum:                                  127.288   127.288   0.9% |
    splines:                                 0.001     0.001   0.0% |
  vbar:                                      3.168     3.168   0.0% |
 Orthonormalize:                            27.650     0.001   0.0% |
  calc_s_matrix:                             3.956     3.956   0.0% |
  inverse-cholesky:                         17.426    17.426   0.1% |
  projections:                               0.000     0.000   0.0% |
  rotate_psi_s:                              6.267     6.267   0.0% |
Set symmetry:                                0.002     0.002   0.0% |
Other:                                     110.216   110.216   0.7% |
-------------------------------------------------------------------
Total:                                             14882.380 100.0%

Memory usage: 1.64 GiB
Date: Wed Jan 18 03:09:50 2023
