
  ___ ___ ___ _ _ _  
 |   |   |_  | | | | 
 | | | | | . | | | | 
 |__ |  _|___|_____|  22.8.0
 |___|_|             

User:   vazumah@f003
Date:   Wed Nov 23 02:11:23 2022
Arch:   x86_64
Pid:    1982
CWD:    /home/vazumah/Python_Projects/Li_NRR/autocad_start/bulk_relaxations/Ba_bulk_bcc
Python: 3.10.6
gpaw:   /home/vazumah/anaconda3/envs/NAME/lib/python3.10/site-packages/gpaw
_gpaw:  /home/vazumah/anaconda3/envs/NAME/lib/python3.10/site-packages/
        _gpaw.cpython-310-x86_64-linux-gnu.so
ase:    /home/vazumah/anaconda3/envs/NAME/lib/python3.10/site-packages/ase (version 3.22.1)
numpy:  /home/vazumah/anaconda3/envs/NAME/lib/python3.10/site-packages/numpy (version 1.23.3)
scipy:  /home/vazumah/anaconda3/envs/NAME/lib/python3.10/site-packages/scipy (version 1.9.1)
libxc:  5.2.3
units:  Angstrom and eV
cores: 32
OpenMP: True
OMP_NUM_THREADS: 1

Input parameters:
  h: 0.16
  kpts: {size: [9, 9, 1]}
  occupations: {name: fermi-dirac,
                width: 0.05}
  xc: BEEF-vdW

System changes: positions, numbers, cell, pbc, initial_charges, initial_magmoms 

Initialize ...

species:
  Ba:
    name: Barium
    id: 3c0c69fceb001740075f2c7491402c79
    Z: 56.0
    valence: 10
    core: 46
    charge: 0.0
    file: /home/vazumah/anaconda3/envs/NAME/share/gpaw/Ba.PBE.gz
    compensation charges: {type: gauss,
                           rc: 0.37,
                           lmax: 2}
    cutoffs: {filter: 2.06,
              core: 2.33}
    valence states:
      #              energy  rcut
      - 5s(2.00)   -33.644   1.164
      - 6s(2.00)    -3.229   1.164
      - 5p(6.00)   -18.744   1.164
      -  p           0.000   1.164
      -  d           0.000   1.164
      -  d          27.211   1.164
  
    # Using partial waves for Ba as LCAO basis

Reference energy: -221277.842511  # eV

Spin-paired calculation

Convergence criteria:
 Maximum [total energy] change in last 3 cyles: 0.0005 eV / electron
 Maximum integral of absolute [dens]ity change: 0.0001 electrons / valence electron
 Maximum integral of absolute [eigenst]ate change: 4e-08 eV^2 / valence electron
 Maximum number of scf [iter]ations: 333
 (Square brackets indicate name in SCF output, whereas a 'c' in
 the SCF output indicates the quantity has converged.)

Symmetries present (total): 48

  ( 1  1  1)  ( 1  1  1)  ( 1  1  1)  ( 1  1  1)  ( 1  1  1)  ( 1  1  1)
  ( 0  0 -1)  ( 0  0 -1)  ( 0 -1  0)  ( 0 -1  0)  (-1  0  0)  (-1  0  0)
  ( 0 -1  0)  (-1  0  0)  ( 0  0 -1)  (-1  0  0)  ( 0  0 -1)  ( 0 -1  0)

  ( 1  0  0)  ( 1  0  0)  ( 1  0  0)  ( 1  0  0)  ( 1  0  0)  ( 1  0  0)
  ( 0  1  0)  ( 0  1  0)  ( 0  0  1)  ( 0  0  1)  (-1 -1 -1)  (-1 -1 -1)
  ( 0  0  1)  (-1 -1 -1)  ( 0  1  0)  (-1 -1 -1)  ( 0  1  0)  ( 0  0  1)

  ( 0  1  0)  ( 0  1  0)  ( 0  1  0)  ( 0  1  0)  ( 0  1  0)  ( 0  1  0)
  ( 1  0  0)  ( 1  0  0)  ( 0  0  1)  ( 0  0  1)  (-1 -1 -1)  (-1 -1 -1)
  ( 0  0  1)  (-1 -1 -1)  ( 1  0  0)  (-1 -1 -1)  ( 1  0  0)  ( 0  0  1)

  ( 0  0  1)  ( 0  0  1)  ( 0  0  1)  ( 0  0  1)  ( 0  0  1)  ( 0  0  1)
  ( 1  0  0)  ( 1  0  0)  ( 0  1  0)  ( 0  1  0)  (-1 -1 -1)  (-1 -1 -1)
  ( 0  1  0)  (-1 -1 -1)  ( 1  0  0)  (-1 -1 -1)  ( 1  0  0)  ( 0  1  0)

  ( 0  0 -1)  ( 0  0 -1)  ( 0  0 -1)  ( 0  0 -1)  ( 0  0 -1)  ( 0  0 -1)
  ( 1  1  1)  ( 1  1  1)  ( 0 -1  0)  ( 0 -1  0)  (-1  0  0)  (-1  0  0)
  ( 0 -1  0)  (-1  0  0)  ( 1  1  1)  (-1  0  0)  ( 1  1  1)  ( 0 -1  0)

  ( 0 -1  0)  ( 0 -1  0)  ( 0 -1  0)  ( 0 -1  0)  ( 0 -1  0)  ( 0 -1  0)
  ( 1  1  1)  ( 1  1  1)  ( 0  0 -1)  ( 0  0 -1)  (-1  0  0)  (-1  0  0)
  ( 0  0 -1)  (-1  0  0)  ( 1  1  1)  (-1  0  0)  ( 1  1  1)  ( 0  0 -1)

  (-1  0  0)  (-1  0  0)  (-1  0  0)  (-1  0  0)  (-1  0  0)  (-1  0  0)
  ( 1  1  1)  ( 1  1  1)  ( 0  0 -1)  ( 0  0 -1)  ( 0 -1  0)  ( 0 -1  0)
  ( 0  0 -1)  ( 0 -1  0)  ( 1  1  1)  ( 0 -1  0)  ( 1  1  1)  ( 0  0 -1)

  (-1 -1 -1)  (-1 -1 -1)  (-1 -1 -1)  (-1 -1 -1)  (-1 -1 -1)  (-1 -1 -1)
  ( 1  0  0)  ( 1  0  0)  ( 0  1  0)  ( 0  1  0)  ( 0  0  1)  ( 0  0  1)
  ( 0  1  0)  ( 0  0  1)  ( 1  0  0)  ( 0  0  1)  ( 1  0  0)  ( 0  1  0)
Note: your k-points are not as symmetric as your crystal!

81 k-points: 9 x 9 x 1 Monkhorst-Pack grid
12 k-points in the irreducible part of the Brillouin zone
       k-points in crystal coordinates                weights
   0:     0.00000000    0.00000000    0.00000000          1/81
   1:     0.11111111    0.00000000    0.00000000          6/81
   2:     0.22222222   -0.11111111    0.00000000          6/81
   3:     0.22222222    0.00000000    0.00000000          6/81
   4:     0.33333333   -0.11111111    0.00000000         12/81
   5:     0.33333333    0.00000000    0.00000000          6/81
   6:     0.33333333    0.33333333    0.00000000          2/81
   7:     0.44444444   -0.22222222    0.00000000          6/81
   8:     0.44444444   -0.11111111    0.00000000         12/81
   9:     0.44444444    0.00000000    0.00000000          6/81
          ...
  11:     0.44444444    0.44444444    0.00000000          6/81

Wave functions: Uniform real-space grid
  Kinetic energy operator: 8*3+1=25 point O(h^6) finite-difference Laplacian
  ScaLapack parameters: grid=1x1, blocksize=None
  Wavefunction extrapolation:
    Improved wavefunction reuse through dual PAW basis 

Occupation numbers: Fermi-Dirac:
  width: 0.0500  # eV
 

Eigensolver
   Davidson(niter=2) 

Densities:
  Coarse grid: 24*24*24 grid
  Fine grid: 48*48*48 grid
  Total Charge: 0.000000 

Density mixing:
  Method: separate
  Backend: pulay
  Linear mixing parameter: 0.05
  old densities: 5
  Damping of long wavelength oscillations: 50 

Hamiltonian:
  XC and Coulomb potentials evaluated on a 48*48*48 grid
  Using the BEEF-vdW Exchange-Correlation functional
  Interpolation: tri-quintic (5. degree polynomial)
  Poisson solver: FastPoissonSolver using
    Stencil: 8*3+1=25 point O(h^6) finite-difference Laplacian
    FFT axes: [0, 1, 2]
    FST axes: []
 

XC parameters: BEEF-vdW with 2 nearest neighbor stencil

Memory estimate:
  Process memory now: 115.62 MiB
  Calculator: 2.36 MiB
    Density: 1.28 MiB
      Arrays: 0.34 MiB
      Localized functions: 0.80 MiB
      Mixer: 0.13 MiB
    Hamiltonian: 0.28 MiB
      Arrays: 0.22 MiB
      XC: 0.00 MiB
      Poisson: 0.00 MiB
      vbar: 0.06 MiB
    Wavefunctions: 0.80 MiB
      Arrays psit_nG: 0.40 MiB
      Eigensolver: 0.27 MiB
      Projections: 0.00 MiB
      Projectors: 0.14 MiB

Total number of cores used: 32
Parallelization over k-points: 4
Domain decomposition: 2 x 2 x 2

Number of atoms: 1
Number of atomic orbitals: 5
Number of bands in calculation: 5
Number of valence electrons: 10
Bands to converge: occupied

... initialized

Initializing position-dependent things.

Density initialized from atomic densities
Creating initial wave functions:
  5 bands from LCAO basis set

                
                
                
       Ba       
                
                
                
                

Positions:
   0 Ba     0.000000    0.000000    0.000000    ( 0.0000,  0.0000,  0.0000)

Unit cell:
           periodic     x           y           z      points  spacing
  1. axis:    yes   -2.510000    2.510000    2.510000    24     0.1479
  2. axis:    yes    2.510000   -2.510000    2.510000    24     0.1479
  3. axis:    yes    2.510000    2.510000   -2.510000    24     0.1479

  Lengths:   4.347448   4.347448   4.347448
  Angles:  109.471221 109.471221 109.471221

Effective grid spacing dv^(1/3) = 0.1660

     iter     time        total  log10-change:
                         energy  eigst   dens
iter:   1 02:11:31  -189.517711
iter:   2 02:11:31  -189.647464  +0.61  -1.23
iter:   3 02:11:32  -189.630151  +0.44  -1.27
iter:   4 02:11:32  -189.634889  +0.35  -1.50
Writing to output.gpw (mode='')

iter:   5 02:11:33  -189.670269  +0.05  -2.05
iter:   6 02:11:34  -189.696787  -0.17  -2.17
iter:   7 02:11:34  -189.707591  -0.21  -1.96
iter:   8 02:11:35  -189.721771  -0.37  -2.28
iter:   9 02:11:35  -189.722971  -0.64  -1.93
Writing to output.gpw (mode='')

iter:  10 02:11:36  -189.726717c -0.82  -2.42
iter:  11 02:11:36  -189.729666  -1.01  -2.55
iter:  12 02:11:37  -189.731616c -1.15  -2.24
iter:  13 02:11:37  -189.733189c -1.31  -2.43
iter:  14 02:11:38  -189.734130c -1.53  -3.07
Writing to output.gpw (mode='')

iter:  15 02:11:39  -189.734944c -1.63  -2.52
iter:  16 02:11:39  -189.735645c -1.69  -2.80
iter:  17 02:11:40  -189.736155c -1.81  -3.21
iter:  18 02:11:40  -189.736595c -1.85  -3.44
iter:  19 02:11:41  -189.736896c -2.04  -3.37
Writing to output.gpw (mode='')

iter:  20 02:11:41  -189.737202c -2.13  -2.70
iter:  21 02:11:42  -189.737458c -2.26  -2.69
iter:  22 02:11:42  -189.737661c -2.30  -3.00
iter:  23 02:11:43  -189.737817c -2.39  -3.64
iter:  24 02:11:43  -189.737965c -2.47  -3.57
Writing to output.gpw (mode='')

iter:  25 02:11:44  -189.738070c -2.57  -3.01
iter:  26 02:11:45  -189.738189c -2.63  -2.75
iter:  27 02:11:45  -189.738256c -2.72  -3.11
iter:  28 02:11:46  -189.738344c -2.73  -2.85
iter:  29 02:11:46  -189.738409c -2.81  -3.38
Writing to output.gpw (mode='')

iter:  30 02:11:47  -189.738461c -2.86  -3.71
iter:  31 02:11:47  -189.738499c -2.98  -3.73
iter:  32 02:11:48  -189.738540c -3.02  -3.39
iter:  33 02:11:48  -189.738562c -3.14  -3.50
iter:  34 02:11:49  -189.738598c -3.24  -2.96
Writing to output.gpw (mode='')

iter:  35 02:11:50  -189.738624c -3.29  -3.35
iter:  36 02:11:50  -189.738646c -3.36  -4.07c
iter:  37 02:11:51  -189.738676c -3.16  -4.24c
iter:  38 02:11:51  -189.738692c -3.58  -3.99
iter:  39 02:11:52  -189.738713c -3.36  -4.05c
Writing to output.gpw (mode='')

iter:  40 02:11:52  -189.738729c -3.59  -4.28c
iter:  41 02:11:53  -189.738744c -3.62  -4.16c
iter:  42 02:11:53  -189.738753c -3.92  -4.39c
iter:  43 02:11:54  -189.738760c -4.02  -4.39c
iter:  44 02:11:54  -189.738766c -4.10  -4.44c
Writing to output.gpw (mode='')

iter:  45 02:11:55  -189.738772c -4.13  -4.53c
iter:  46 02:11:56  -189.738777c -4.22  -4.58c
iter:  47 02:11:56  -189.738781c -4.29  -4.86c
iter:  48 02:11:57  -189.738786c -4.21  -4.65c
iter:  49 02:11:57  -189.738790c -4.32  -4.47c
Writing to output.gpw (mode='')

iter:  50 02:11:58  -189.738793c -4.42  -4.13c
iter:  51 02:11:58  -189.738796c -4.58  -4.54c
iter:  52 02:11:59  -189.738798c -4.34  -4.30c
iter:  53 02:11:59  -189.738800c -4.74  -4.31c
iter:  54 02:12:00  -189.738802c -4.73  -4.26c
Writing to output.gpw (mode='')

iter:  55 02:12:01  -189.738803c -4.80  -4.54c
iter:  56 02:12:01  -189.738804c -4.82  -4.80c
iter:  57 02:12:02  -189.738805c -4.90  -4.79c
iter:  58 02:12:02  -189.738806c -5.03  -4.99c
iter:  59 02:12:03  -189.738807c -4.94  -4.77c
Writing to output.gpw (mode='')

iter:  60 02:12:03  -189.738807c -4.83  -5.42c
iter:  61 02:12:04  -189.738808c -5.20  -5.57c
iter:  62 02:12:04  -189.738808c -5.25  -5.35c
iter:  63 02:12:05  -189.738809c -5.11  -5.55c
iter:  64 02:12:05  -189.738809c -5.35  -5.68c
Writing to output.gpw (mode='')

iter:  65 02:12:06  -189.738809c -5.40  -5.69c
iter:  66 02:12:07  -189.738810c -5.39  -4.78c
iter:  67 02:12:07  -189.738810c -5.54  -4.96c
iter:  68 02:12:08  -189.738810c -5.47  -5.45c
iter:  69 02:12:08  -189.738810c -5.42  -5.61c
Writing to output.gpw (mode='')

iter:  70 02:12:09  -189.738811c -5.73  -5.77c
iter:  71 02:12:09  -189.738811c -5.81  -5.91c
iter:  72 02:12:10  -189.738811c -5.58  -5.99c
iter:  73 02:12:10  -189.738811c -5.91  -6.19c
iter:  74 02:12:11  -189.738811c -5.94  -6.19c
Writing to output.gpw (mode='')

iter:  75 02:12:12  -189.738811c -5.79  -6.14c
iter:  76 02:12:12  -189.738811c -6.04  -6.03c
iter:  77 02:12:13  -189.738811c -5.97  -5.77c
iter:  78 02:12:13  -189.738812c -6.15  -5.73c
iter:  79 02:12:14  -189.738812c -6.18  -5.60c
Writing to output.gpw (mode='')

iter:  80 02:12:14  -189.738812c -6.23  -5.57c
iter:  81 02:12:15  -189.738812c -6.26  -5.64c
iter:  82 02:12:15  -189.738812c -6.21  -5.65c
iter:  83 02:12:16  -189.738812c -6.31  -5.56c
iter:  84 02:12:16  -189.738812c -6.36  -5.54c
Writing to output.gpw (mode='')

iter:  85 02:12:17  -189.738812c -6.38  -5.57c
iter:  86 02:12:18  -189.738812c -6.41  -5.51c
iter:  87 02:12:18  -189.738812c -6.44  -5.49c
iter:  88 02:12:19  -189.738812c -6.48  -5.51c
iter:  89 02:12:19  -189.738812c -6.46  -5.55c
Writing to output.gpw (mode='')

iter:  90 02:12:20  -189.738812c -6.48  -5.50c
iter:  91 02:12:20  -189.738812c -6.54  -5.49c
iter:  92 02:12:21  -189.738812c -6.51  -5.48c
iter:  93 02:12:21  -189.738812c -6.67  -5.60c
iter:  94 02:12:22  -189.738812c -6.62  -5.52c
Writing to output.gpw (mode='')

iter:  95 02:12:23  -189.738812c -6.59  -5.80c
iter:  96 02:12:23  -189.738812c -6.79  -5.88c
iter:  97 02:12:24  -189.738812c -6.82  -5.88c
iter:  98 02:12:24  -189.738812c -6.77  -5.60c
iter:  99 02:12:25  -189.738812c -6.80  -5.96c
Writing to output.gpw (mode='')

iter: 100 02:12:25  -189.738812c -6.91  -6.01c
iter: 101 02:12:26  -189.738812c -6.92  -6.95c
iter: 102 02:12:26  -189.738812c -6.96  -6.93c
iter: 103 02:12:27  -189.738812c -6.85  -7.03c
iter: 104 02:12:27  -189.738812c -6.85  -7.08c
Writing to output.gpw (mode='')

iter: 105 02:12:28  -189.738812c -7.08  -7.00c
iter: 106 02:12:29  -189.738812c -7.08  -7.13c
iter: 107 02:12:29  -189.738812c -7.13  -6.72c
iter: 108 02:12:30  -189.738812c -7.16  -6.60c
iter: 109 02:12:30  -189.738812c -7.14  -6.66c
Writing to output.gpw (mode='')

iter: 110 02:12:31  -189.738812c -7.04  -6.49c
iter: 111 02:12:31  -189.738812c -7.26  -6.49c
iter: 112 02:12:32  -189.738812c -7.24  -6.33c
iter: 113 02:12:32  -189.738812c -7.30  -6.32c
iter: 114 02:12:33  -189.738812c -7.33  -6.36c
Writing to output.gpw (mode='')

iter: 115 02:12:33  -189.738812c -7.23  -6.36c
iter: 116 02:12:34  -189.738812c -7.29  -6.33c
iter: 117 02:12:35  -189.738812c -7.44c -6.07c

Converged after 117 iterations.

Dipole moment: (-1.027742, -1.027742, -1.027742) |e|*Ang

Energy contributions relative to reference atoms: (reference = -221277.842511)

Kinetic:         +8.374458
Potential:       -6.502333
External:        +0.000000
XC:            -191.416750
Entropy (-ST):   -0.000000
Local:           -0.194188
--------------------------
Free energy:   -189.738812
Extrapolated:  -189.738812

Showing only first 2 kpts
 Kpt  Band  Eigenvalues  Occupancy
  0     3     -9.11568    2.00000
  0     4      2.12180    2.00000

  1     3     -9.11596    2.00000
  1     4      2.34685    2.00000


Fermi level: inf

Writing to output.gpw (mode='')


Forces in eV/Ang:
  0 Ba   -0.00000   -0.00000    0.00000

Timing:                              incl.     excl.
-----------------------------------------------------------
Forces:                              0.030     0.030   0.0% |
Hamiltonian:                         6.340     0.000   0.0% |
 Atomic:                             0.201     0.201   0.3% |
  XC Correction:                     0.000     0.000   0.0% |
 Calculate atomic Hamiltonians:      0.001     0.001   0.0% |
 Communicate:                        0.000     0.000   0.0% |
 Hartree integrate/restrict:         0.001     0.001   0.0% |
 Initialize Hamiltonian:             0.000     0.000   0.0% |
 Poisson:                            0.016     0.001   0.0% |
  Communicate from 1D:               0.003     0.003   0.0% |
  Communicate from 2D:               0.003     0.003   0.0% |
  Communicate to 1D:                 0.004     0.004   0.0% |
  Communicate to 2D:                 0.004     0.004   0.0% |
  FFT 1D:                            0.001     0.001   0.0% |
  FFT 2D:                            0.001     0.001   0.0% |
 XC 3D grid:                         6.120     0.046   0.1% |
  VdW-DF integral:                   6.074     0.008   0.0% |
   Convolution:                      0.018     0.018   0.0% |
   FFT:                              0.004     0.004   0.0% |
   gather:                           0.077     0.077   0.1% |
   hmm1:                             0.008     0.008   0.0% |
   hmm2:                             0.006     0.006   0.0% |
   iFFT:                             0.006     0.006   0.0% |
   potential:                        0.064     0.005   0.0% |
    collect:                         0.006     0.006   0.0% |
    p1:                              0.032     0.032   0.0% |
    p2:                              0.016     0.016   0.0% |
    sum:                             0.005     0.005   0.0% |
   splines:                          5.883     5.883   8.2% |--|
 vbar:                               0.000     0.000   0.0% |
LCAO initialization:                 0.318     0.049   0.1% |
 LCAO eigensolver:                   0.133     0.001   0.0% |
  Calculate projections:             0.000     0.000   0.0% |
  DenseAtomicCorrection:             0.000     0.000   0.0% |
  Distribute overlap matrix:         0.000     0.000   0.0% |
  Orbital Layouts:                   0.104     0.104   0.1% |
  Potential matrix:                  0.005     0.005   0.0% |
  Sum over cells:                    0.023     0.023   0.0% |
 LCAO to grid:                       0.003     0.003   0.0% |
 Set positions (LCAO WFS):           0.132     0.099   0.1% |
  Basic WFS set positions:           0.003     0.003   0.0% |
  Basis functions set positions:     0.000     0.000   0.0% |
  P tci:                             0.005     0.005   0.0% |
  ST tci:                            0.011     0.011   0.0% |
  mktci:                             0.013     0.013   0.0% |
SCF-cycle:                          63.826     1.707   2.4% ||
 Davidson:                           5.984     2.812   3.9% |-|
  Apply hamiltonian:                 0.434     0.434   0.6% |
  Subspace diag:                     0.783     0.035   0.0% |
   calc_h_matrix:                    0.576     0.110   0.2% |
    Apply hamiltonian:               0.466     0.466   0.6% |
   diagonalize:                      0.087     0.087   0.1% |
   rotate_psi:                       0.085     0.085   0.1% |
  calc. matrices:                    1.684     0.775   1.1% |
   Apply hamiltonian:                0.908     0.908   1.3% ||
  diagonalize:                       0.111     0.111   0.2% |
  rotate_psi:                        0.160     0.160   0.2% |
 Density:                            7.321     0.003   0.0% |
  Atomic density matrices:           0.150     0.150   0.2% |
  Mix:                               0.212     0.212   0.3% |
  Multipole moments:                 0.015     0.015   0.0% |
  Pseudo density:                    6.941     0.042   0.1% |
   Symmetrize density:               6.899     6.899   9.6% |---|
 Hamiltonian:                       48.770     0.013   0.0% |
  Atomic:                           23.271    23.270  32.4% |------------|
   XC Correction:                    0.001     0.001   0.0% |
  Calculate atomic Hamiltonians:     0.100     0.100   0.1% |
  Communicate:                       0.016     0.016   0.0% |
  Hartree integrate/restrict:        0.102     0.102   0.1% |
  Poisson:                           1.838     0.049   0.1% |
   Communicate from 1D:              0.394     0.394   0.5% |
   Communicate from 2D:              0.406     0.406   0.6% |
   Communicate to 1D:                0.386     0.386   0.5% |
   Communicate to 2D:                0.409     0.409   0.6% |
   FFT 1D:                           0.057     0.057   0.1% |
   FFT 2D:                           0.138     0.138   0.2% |
  XC 3D grid:                       23.415     5.021   7.0% |--|
   VdW-DF integral:                 18.394     0.844   1.2% |
    Convolution:                     2.048     2.048   2.8% ||
    FFT:                             0.479     0.479   0.7% |
    gather:                          5.278     5.278   7.3% |--|
    hmm1:                            0.919     0.919   1.3% ||
    hmm2:                            1.286     1.286   1.8% ||
    iFFT:                            0.663     0.663   0.9% |
    potential:                       6.876     0.165   0.2% |
     collect:                        0.601     0.601   0.8% |
     p1:                             3.704     3.704   5.2% |-|
     p2:                             1.830     1.830   2.5% ||
     sum:                            0.575     0.575   0.8% |
    splines:                         0.001     0.001   0.0% |
  vbar:                              0.016     0.016   0.0% |
 Orthonormalize:                     0.044     0.000   0.0% |
  calc_s_matrix:                     0.002     0.002   0.0% |
  inverse-cholesky:                  0.039     0.039   0.1% |
  projections:                       0.003     0.003   0.0% |
  rotate_psi_s:                      0.000     0.000   0.0% |
Set symmetry:                        0.036     0.036   0.0% |
Other:                               1.336     1.336   1.9% ||
-----------------------------------------------------------
Total:                                        71.886 100.0%

Memory usage: 156.21 MiB
Date: Wed Nov 23 02:12:35 2022
