
  ___ ___ ___ _ _ _  
 |   |   |_  | | | | 
 | | | | | . | | | | 
 |__ |  _|___|_____|  22.8.0
 |___|_|             

User:   vazumah@c14.hercules
Date:   Tue Jan 17 23:03:16 2023
Arch:   x86_64
Pid:    7722
CWD:    /home/vazumah/Python_projects/LiNRR/autocad_start/slab_experiments/free_slabs/K/bcc100/substrate
Python: 3.10.8
gpaw:   /home/vazumah/.conda/envs/GPAW/lib/python3.10/site-packages/gpaw
_gpaw:  /home/vazumah/.conda/envs/GPAW/lib/python3.10/site-packages/
        _gpaw.cpython-310-x86_64-linux-gnu.so
ase:    /home/vazumah/.conda/envs/GPAW/lib/python3.10/site-packages/ase (version 3.22.1)
numpy:  /home/vazumah/.conda/envs/GPAW/lib/python3.10/site-packages/numpy (version 1.24.1)
scipy:  /home/vazumah/.conda/envs/GPAW/lib/python3.10/site-packages/scipy (version 1.10.0)
libxc:  5.2.3
units:  Angstrom and eV
cores: 24
OpenMP: True
OMP_NUM_THREADS: 1

Input parameters:
  eigensolver: {name: dav,
                niter: 3}
  h: 0.16
  kpts: {size: [2, 2, 1]}
  maxiter: 999
  mixer: {backend: pulay,
          beta: 0.02,
          method: separate,
          nmaxold: 5,
          weight: 100}
  occupations: {name: fermi-dirac,
                width: 0.05}
  poissonsolver: {dipolelayer: xy}
  xc: BEEF-vdW

System changes: positions, numbers, cell, pbc, initial_charges, initial_magmoms 

Initialize ...

species:
  K:
    name: Potassium
    id: 04190408da443a44668134082ce1c192
    Z: 19.0
    valence: 9
    core: 10
    charge: 0.0
    file: /home/vazumah/.conda/envs/GPAW/share/gpaw/K.PBE.gz
    compensation charges: {type: gauss,
                           rc: 0.35,
                           lmax: 2}
    cutoffs: {filter: 1.91,
              core: 1.27}
    valence states:
      #              energy  rcut
      - 3s(2.00)   -35.338   1.122
      - 4s(1.00)    -2.319   1.122
      - 3p(6.00)   -18.813   1.106
      -  p           8.398   1.106
      -  d           0.000   0.937
  
    # Using partial waves for K as LCAO basis

Reference energy: -589761.115863  # eV

Spin-paired calculation

Convergence criteria:
 Maximum [total energy] change in last 3 cyles: 0.0005 eV / electron
 Maximum integral of absolute [dens]ity change: 0.0001 electrons / valence electron
 Maximum integral of absolute [eigenst]ate change: 4e-08 eV^2 / valence electron
 Maximum number of scf [iter]ations: 999
 (Square brackets indicate name in SCF output, whereas a 'c' in
 the SCF output indicates the quantity has converged.)

Symmetries present (total): 8

  ( 1  0  0)  ( 1  0  0)  ( 0  1  0)  ( 0  1  0)  ( 0 -1  0)  ( 0 -1  0)
  ( 0  1  0)  ( 0 -1  0)  ( 1  0  0)  (-1  0  0)  ( 1  0  0)  (-1  0  0)
  ( 0  0  1)  ( 0  0  1)  ( 0  0  1)  ( 0  0  1)  ( 0  0  1)  ( 0  0  1)

  (-1  0  0)  (-1  0  0)
  ( 0  1  0)  ( 0 -1  0)
  ( 0  0  1)  ( 0  0  1)

4 k-points: 2 x 2 x 1 Monkhorst-Pack grid
1 k-point in the irreducible part of the Brillouin zone
       k-points in crystal coordinates                weights
   0:     0.25000000    0.25000000    0.00000000          4/4

Wave functions: Uniform real-space grid
  Kinetic energy operator: 6*3+1=19 point O(h^6) finite-difference Laplacian
  ScaLapack parameters: grid=1x1, blocksize=None
  Wavefunction extrapolation:
    Improved wavefunction reuse through dual PAW basis 

Occupation numbers: Fermi-Dirac:
  width: 0.0500  # eV
 

Eigensolver
   Davidson(niter=3) 

Densities:
  Coarse grid: 100*100*176 grid
  Fine grid: 200*200*352 grid
  Total Charge: 0.000000 

Density mixing:
  Method: separate
  Backend: pulay
  Linear mixing parameter: 0.02
  old densities: 5
  Damping of long wavelength oscillations: 100 

Hamiltonian:
  XC and Coulomb potentials evaluated on a 200*200*352 grid
  Using the BEEF-vdW Exchange-Correlation functional
  Interpolation: tri-quintic (5. degree polynomial)
  Poisson solver: FastPoissonSolver using
    Stencil: 6*3+1=19 point O(h^6) finite-difference Laplacian
    FFT axes: [0, 1]
    FST axes: [2]

Dipole correction along z-axis 

XC parameters: BEEF-vdW with 2 nearest neighbor stencil

Memory estimate:
  Process memory now: 135.35 MiB
  Calculator: 453.44 MiB
    Density: 30.07 MiB
      Arrays: 14.46 MiB
      Localized functions: 10.03 MiB
      Mixer: 5.58 MiB
    Hamiltonian: 10.13 MiB
      Arrays: 9.45 MiB
      XC: 0.00 MiB
      Poisson: 0.00 MiB
      vbar: 0.68 MiB
    Wavefunctions: 413.24 MiB
      Arrays psit_nG: 200.78 MiB
      Eigensolver: 211.30 MiB
      Projections: 0.05 MiB
      Projectors: 1.11 MiB

Total number of cores used: 24
Domain decomposition: 2 x 3 x 4

Number of atoms: 36
Number of atomic orbitals: 180
Number of bands in calculation: 180
Number of valence electrons: 324
Bands to converge: occupied

... initialized

Initializing position-dependent things.

Density initialized from atomic densities
Creating initial wave functions:
  180 bands from LCAO basis set

           .--------------------------------------.  
          /|                                      |  
         / |                                      |  
        /  |                                      |  
       /   |                                      |  
      /    |                                      |  
     /     |                                      |  
    /      |                                      |  
   /       |                                      |  
  /        |                                      |  
 *         |                                      |  
 |         |                                      |  
 |         |                                      |  
 |         |                                      |  
 |         |                                      |  
 |         |                                      |  
 |      K  |         K            K               |  
 |         |    K            K            K       |  
 |         |                                      |  
 |  K      |     K            K                   |  
 |         |K            K             K          |  
 |         |                                      |  
 K      K  |  K      K     K      K               |  
 |         |    K            K            K       |  
 |       K |          K            K              |  
 |  K      |     K            K                   |  
 |         |                                      |  
 |         |K            K             K          |  
 |         |                                      |  
 K         |  K            K                      |  
 |       K |          K            K              |  
 |         |                                      |  
 |         |                                      |  
 |         |                                      |  
 |         .--------------------------------------.  
 |        /                                      /   
 |       /                                      /    
 |      /                                      /     
 |     /                                      /      
 |    /                                      /       
 |   /                                      /        
 |  /                                      /         
 | /                                      /          
 |/                                      /           
 *--------------------------------------*            

Positions:
   0 K      2.615000    2.615000   10.000000    ( 0.0000,  0.0000,  0.0000)
   1 K      7.845000    2.615000   10.000000    ( 0.0000,  0.0000,  0.0000)
   2 K     13.075000    2.615000   10.000000    ( 0.0000,  0.0000,  0.0000)
   3 K      2.615000    7.845000   10.000000    ( 0.0000,  0.0000,  0.0000)
   4 K      7.845000    7.845000   10.000000    ( 0.0000,  0.0000,  0.0000)
   5 K     13.075000    7.845000   10.000000    ( 0.0000,  0.0000,  0.0000)
   6 K      2.615000   13.075000   10.000000    ( 0.0000,  0.0000,  0.0000)
   7 K      7.845000   13.075000   10.000000    ( 0.0000,  0.0000,  0.0000)
   8 K     13.075000   13.075000   10.000000    ( 0.0000,  0.0000,  0.0000)
   9 K      0.000000    0.000000   12.615000    ( 0.0000,  0.0000,  0.0000)
  10 K      5.230000    0.000000   12.615000    ( 0.0000,  0.0000,  0.0000)
  11 K     10.460000    0.000000   12.615000    ( 0.0000,  0.0000,  0.0000)
  12 K      0.000000    5.230000   12.615000    ( 0.0000,  0.0000,  0.0000)
  13 K      5.230000    5.230000   12.615000    ( 0.0000,  0.0000,  0.0000)
  14 K     10.460000    5.230000   12.615000    ( 0.0000,  0.0000,  0.0000)
  15 K      0.000000   10.460000   12.615000    ( 0.0000,  0.0000,  0.0000)
  16 K      5.230000   10.460000   12.615000    ( 0.0000,  0.0000,  0.0000)
  17 K     10.460000   10.460000   12.615000    ( 0.0000,  0.0000,  0.0000)
  18 K      2.615000    2.615000   15.230000    ( 0.0000,  0.0000,  0.0000)
  19 K      7.845000    2.615000   15.230000    ( 0.0000,  0.0000,  0.0000)
  20 K     13.075000    2.615000   15.230000    ( 0.0000,  0.0000,  0.0000)
  21 K      2.615000    7.845000   15.230000    ( 0.0000,  0.0000,  0.0000)
  22 K      7.845000    7.845000   15.230000    ( 0.0000,  0.0000,  0.0000)
  23 K     13.075000    7.845000   15.230000    ( 0.0000,  0.0000,  0.0000)
  24 K      2.615000   13.075000   15.230000    ( 0.0000,  0.0000,  0.0000)
  25 K      7.845000   13.075000   15.230000    ( 0.0000,  0.0000,  0.0000)
  26 K     13.075000   13.075000   15.230000    ( 0.0000,  0.0000,  0.0000)
  27 K      0.000000    0.000000   17.845000    ( 0.0000,  0.0000,  0.0000)
  28 K      5.230000    0.000000   17.845000    ( 0.0000,  0.0000,  0.0000)
  29 K     10.460000    0.000000   17.845000    ( 0.0000,  0.0000,  0.0000)
  30 K      0.000000    5.230000   17.845000    ( 0.0000,  0.0000,  0.0000)
  31 K      5.230000    5.230000   17.845000    ( 0.0000,  0.0000,  0.0000)
  32 K     10.460000    5.230000   17.845000    ( 0.0000,  0.0000,  0.0000)
  33 K      0.000000   10.460000   17.845000    ( 0.0000,  0.0000,  0.0000)
  34 K      5.230000   10.460000   17.845000    ( 0.0000,  0.0000,  0.0000)
  35 K     10.460000   10.460000   17.845000    ( 0.0000,  0.0000,  0.0000)

Unit cell:
           periodic     x           y           z      points  spacing
  1. axis:    yes   15.690000    0.000000    0.000000   100     0.1569
  2. axis:    yes    0.000000   15.690000    0.000000   100     0.1569
  3. axis:    no     0.000000    0.000000   27.845000   176     0.1582

  Lengths:  15.690000  15.690000  27.845000
  Angles:   90.000000  90.000000  90.000000

Effective grid spacing dv^(1/3) = 0.1573

     iter     time        total  log10-change:
                         energy  eigst   dens
iter:   1 23:14:32 -1459.578925
iter:   2 23:24:48 -1461.779111  +0.21  -1.39
iter:   3 23:35:47 -1461.700876  -0.18  -1.38
iter:   4 23:46:31 -1459.712238  -0.37  -1.43
Writing to output.gpw (mode='')

iter:   5 23:57:05 -1459.976743  -0.64  -1.63
iter:   6 00:07:47 -1460.030294  -0.82  -1.64
iter:   7 00:18:10 -1460.488234  -1.08  -1.71
iter:   8 00:28:31 -1460.504375  -1.05  -1.71
iter:   9 00:38:44 -1460.540039c -1.46  -1.86
Writing to output.gpw (mode='')

iter:  10 00:49:13 -1460.566543c -1.44  -2.31
iter:  11 00:59:21 -1460.582535c -1.69  -2.42
iter:  12 01:09:33 -1460.612379c -1.80  -2.48
iter:  13 01:20:01 -1460.633109c -2.04  -2.53
iter:  14 01:30:25 -1460.645743c -2.05  -2.75
Writing to output.gpw (mode='')

iter:  15 01:40:49 -1460.652975c -2.28  -2.76
iter:  16 01:51:32 -1460.658177c -2.35  -2.75
iter:  17 02:02:05 -1460.662427c -2.63  -2.72
iter:  18 02:12:34 -1460.665341c -2.63  -2.67
iter:  19 02:22:46 -1460.669634c -2.85  -2.72
Writing to output.gpw (mode='')

iter:  20 02:33:02 -1460.671095c -2.93  -2.76
iter:  21 02:42:46 -1460.668965c -3.03  -2.73
iter:  22 02:53:23 -1460.671648c -3.16  -2.75
iter:  23 03:03:52 -1460.672116c -3.28  -2.74
iter:  24 03:09:14 -1460.674925c -3.43  -2.76
Writing to output.gpw (mode='')

iter:  25 03:17:09 -1460.674468c -3.48  -2.77
iter:  26 03:27:31 -1460.675222c -3.60  -2.78
iter:  27 03:38:00 -1460.677609c -3.71  -2.81
iter:  28 03:48:34 -1460.677923c -3.76  -2.84
iter:  29 03:58:59 -1460.681541c -3.82  -2.87
Writing to output.gpw (mode='')

iter:  30 04:09:17 -1460.682584c -3.67  -3.04
iter:  31 04:19:31 -1460.682928c -3.84  -3.17
iter:  32 04:29:34 -1460.682910c -3.99  -3.18
iter:  33 04:40:04 -1460.683949c -4.14  -3.14
iter:  34 04:50:20 -1460.685304c -4.13  -3.26
Writing to output.gpw (mode='')

iter:  35 05:00:54 -1460.685395c -4.08  -3.70
iter:  36 05:11:30 -1460.685451c -4.50  -3.65
iter:  37 05:21:49 -1460.685360c -4.52  -3.62
iter:  38 05:32:26 -1460.685430c -4.79  -3.54
iter:  39 05:43:01 -1460.685670c -4.80  -3.55
Writing to output.gpw (mode='')

iter:  40 05:53:23 -1460.685857c -4.95  -3.58
iter:  41 06:03:49 -1460.685919c -4.82  -3.70
iter:  42 06:14:17 -1460.685927c -5.18  -3.66
iter:  43 06:24:57 -1460.685404c -5.00  -3.71
iter:  44 06:35:35 -1460.685543c -5.30  -3.46
Writing to output.gpw (mode='')

iter:  45 06:46:25 -1460.685669c -5.54  -3.57
iter:  46 06:57:04 -1460.686033c -4.93  -3.66
iter:  47 07:07:41 -1460.686179c -5.11  -3.84
iter:  48 07:18:22 -1460.686186c -5.15  -3.89
iter:  49 07:28:59 -1460.686196c -5.62  -3.91
Writing to output.gpw (mode='')

iter:  50 07:39:30 -1460.686208c -5.60  -3.93
iter:  51 07:49:48 -1460.686204c -5.61  -4.04c
iter:  52 08:00:08 -1460.686179c -5.98  -4.05c
iter:  53 08:10:44 -1460.686159c -5.82  -4.12c
iter:  54 08:21:23 -1460.686165c -5.89  -4.19c
Writing to output.gpw (mode='')

iter:  55 08:32:03 -1460.686174c -5.97  -4.26c
iter:  56 08:42:32 -1460.686190c -6.21  -4.26c
iter:  57 08:53:25 -1460.686204c -6.13  -4.29c
iter:  58 09:03:36 -1460.686233c -6.28  -4.33c
iter:  59 09:13:59 -1460.686240c -6.29  -4.44c
Writing to output.gpw (mode='')

iter:  60 09:24:46 -1460.686253c -6.63  -4.51c
iter:  61 09:35:36 -1460.686243c -6.53  -4.54c
iter:  62 09:46:02 -1460.686244c -6.92  -4.58c
iter:  63 09:56:24 -1460.686245c -6.75  -4.65c
iter:  64 10:06:40 -1460.686241c -7.04  -4.70c
Writing to output.gpw (mode='')

iter:  65 10:17:22 -1460.686222c -7.00  -4.77c
iter:  66 10:28:09 -1460.686223c -6.95  -5.00c
iter:  67 10:38:36 -1460.686224c -7.34  -5.01c
iter:  68 10:49:08 -1460.686225c -7.25  -5.01c
iter:  69 10:59:38 -1460.686228c -7.54c -5.02c

Converged after 69 iterations.

Dipole moment: (-24.064622, -24.064622, -0.000096) |e|*Ang

Energy contributions relative to reference atoms: (reference = -589761.115863)

Kinetic:       +186.453474
Potential:     -138.363654
External:        +0.000000
XC:            -1483.730328
Entropy (-ST):   -0.484773
Local:          -24.803333
--------------------------
Free energy:   -1460.928614
Extrapolated:  -1460.686228

Dipole-layer corrected work functions: 2.471333, 2.471404 eV

 Band  Eigenvalues  Occupancy
    0    -35.23046    2.00000
    1    -35.23041    2.00000
    2    -35.23035    2.00000
    3    -35.23035    2.00000
    4    -35.23030    2.00000
    5    -35.23030    2.00000
    6    -35.23025    2.00000
    7    -35.23025    2.00000
    8    -35.23024    2.00000
    9    -35.23019    2.00000
   10    -35.23019    2.00000
   11    -35.23018    2.00000
   12    -35.23015    2.00000
   13    -35.23014    2.00000
   14    -35.23009    2.00000
   15    -35.23008    2.00000
   16    -35.23004    2.00000
   17    -35.22997    2.00000
   18    -34.96736    2.00000
   19    -34.96678    2.00000
   20    -34.96678    2.00000
   21    -34.96632    2.00000
   22    -34.96584    2.00000
   23    -34.96583    2.00000
   24    -34.96560    2.00000
   25    -34.96560    2.00000
   26    -34.96527    2.00000
   27    -34.96501    2.00000
   28    -34.96488    2.00000
   29    -34.96488    2.00000
   30    -34.96485    2.00000
   31    -34.96485    2.00000
   32    -34.96436    2.00000
   33    -34.96410    2.00000
   34    -34.96410    2.00000
   35    -34.96371    2.00000
   36    -18.69738    2.00000
   37    -18.69717    2.00000
   38    -18.69716    2.00000
   39    -18.69698    2.00000
   40    -18.69688    2.00000
   41    -18.69687    2.00000
   42    -18.69680    2.00000
   43    -18.69679    2.00000
   44    -18.69670    2.00000
   45    -18.69670    2.00000
   46    -18.69662    2.00000
   47    -18.69637    2.00000
   48    -18.69608    2.00000
   49    -18.69608    2.00000
   50    -18.69597    2.00000
   51    -18.69597    2.00000
   52    -18.69527    2.00000
   53    -18.69521    2.00000
   54    -18.68694    2.00000
   55    -18.68693    2.00000
   56    -18.68687    2.00000
   57    -18.68686    2.00000
   58    -18.68651    2.00000
   59    -18.68650    2.00000
   60    -18.68645    2.00000
   61    -18.68643    2.00000
   62    -18.68619    2.00000
   63    -18.68610    2.00000
   64    -18.68599    2.00000
   65    -18.68596    2.00000
   66    -18.68243    2.00000
   67    -18.68242    2.00000
   68    -18.68236    2.00000
   69    -18.68235    2.00000
   70    -18.68204    2.00000
   71    -18.68189    2.00000
   72    -18.68184    2.00000
   73    -18.68178    2.00000
   74    -18.68143    2.00000
   75    -18.68142    2.00000
   76    -18.68135    2.00000
   77    -18.68134    2.00000
   78    -18.67793    2.00000
   79    -18.67787    2.00000
   80    -18.67782    2.00000
   81    -18.67781    2.00000
   82    -18.67733    2.00000
   83    -18.67732    2.00000
   84    -18.67725    2.00000
   85    -18.67724    2.00000
   86    -18.67675    2.00000
   87    -18.67674    2.00000
   88    -18.67669    2.00000
   89    -18.67668    2.00000
   90    -18.44694    2.00000
   91    -18.44675    2.00000
   92    -18.44674    2.00000
   93    -18.44667    2.00000
   94    -18.44666    2.00000
   95    -18.44648    2.00000
   96    -18.44648    2.00000
   97    -18.44592    2.00000
   98    -18.44551    2.00000
   99    -18.44513    2.00000
  100    -18.44511    2.00000
  101    -18.44482    2.00000
  102    -18.44481    2.00000
  103    -18.44408    2.00000
  104    -18.44132    2.00000
  105    -18.44132    2.00000
  106    -18.44005    2.00000
  107    -18.43531    2.00000
  108    -18.43436    2.00000
  109    -18.43413    2.00000
  110    -18.43112    2.00000
  111    -18.43079    2.00000
  112    -18.43078    2.00000
  113    -18.43021    2.00000
  114    -18.43020    2.00000
  115    -18.42838    2.00000
  116    -18.42501    2.00000
  117    -18.42501    2.00000
  118    -18.42431    2.00000
  119    -18.42431    2.00000
  120    -18.41924    2.00000
  121    -18.41884    2.00000
  122    -18.41883    2.00000
  123    -18.41702    2.00000
  124    -18.41400    2.00000
  125    -18.41400    2.00000
  126    -18.41390    2.00000
  127    -18.41389    2.00000
  128    -18.41282    2.00000
  129    -18.41280    2.00000
  130    -18.41269    2.00000
  131    -18.41268    2.00000
  132    -18.41236    2.00000
  133    -18.41221    2.00000
  134    -18.41195    2.00000
  135    -18.41174    2.00000
  136    -18.41173    2.00000
  137    -18.41172    2.00000
  138    -18.41172    2.00000
  139    -18.41068    2.00000
  140    -18.41065    2.00000
  141    -18.41057    2.00000
  142    -18.41005    2.00000
  143    -18.40876    2.00000
  144     -4.36195    2.00000
  145     -4.02253    2.00000
  146     -4.02252    2.00000
  147     -3.69231    2.00000
  148     -3.68568    2.00000
  149     -3.37363    2.00000
  150     -3.37362    2.00000
  151     -3.36115    2.00000
  152     -3.36115    2.00000
  153     -3.06233    1.99999
  154     -3.06233    1.99999
  155     -3.04141    1.99998
  156     -2.75070    1.99253
  157     -2.74727    1.99200
  158     -2.74726    1.99200
  159     -2.47465    1.03279
  160     -2.47153    1.00160
  161     -2.47153    1.00159
  162     -2.44992    0.78876
  163     -2.44992    0.78872
  164     -2.44005    0.69669
  165     -2.44005    0.69669
  166     -2.18600    0.00662
  167     -2.18600    0.00662
  168     -2.14963    0.00320
  169     -1.97732    0.00010
  170     -1.97732    0.00010
  171     -1.88405    0.00002
  172     -1.85235    0.00001
  173     -1.68308    0.00000
  174     -1.63175    0.00000
  175     -1.63174    0.00000
  176     -1.53087    0.00000
  177     -1.53072    0.00000
  178     -1.21300    0.00000
  179     -1.03544    0.00000

Fermi level: -2.47137

Gap: 0.022 eV
Transition (v -> c):
  (s=0, k=0, n=161, [0.25, 0.25, 0.00]) -> (s=0, k=0, n=162, [0.25, 0.25, 0.00])
Writing to output.gpw (mode='')


Forces in eV/Ang:
  0 K     0.00475    0.00475   -0.04555
  1 K     0.00000   -0.00910   -0.05413
  2 K    -0.00475    0.00475   -0.04555
  3 K    -0.00910    0.00000   -0.05413
  4 K     0.00000    0.00000   -0.05190
  5 K     0.00910    0.00000   -0.05413
  6 K     0.00475   -0.00475   -0.04555
  7 K     0.00000    0.00910   -0.05413
  8 K    -0.00475   -0.00475   -0.04555
  9 K    -0.00000    0.00000    0.01426
 10 K     0.00782    0.00000    0.01500
 11 K    -0.00782    0.00000    0.01500
 12 K     0.00000    0.00782    0.01500
 13 K    -0.00477   -0.00477    0.01236
 14 K     0.00477   -0.00477    0.01236
 15 K     0.00000   -0.00782    0.01500
 16 K    -0.00477    0.00477    0.01236
 17 K     0.00477    0.00477    0.01236
 18 K     0.00464    0.00464   -0.01232
 19 K     0.00000   -0.00796   -0.01489
 20 K    -0.00464    0.00464   -0.01232
 21 K    -0.00796    0.00000   -0.01489
 22 K     0.00000    0.00000   -0.01407
 23 K     0.00796    0.00000   -0.01489
 24 K     0.00464   -0.00464   -0.01232
 25 K     0.00000    0.00796   -0.01489
 26 K    -0.00464   -0.00464   -0.01232
 27 K     0.00000    0.00000    0.05188
 28 K     0.00904    0.00000    0.05417
 29 K    -0.00904    0.00000    0.05417
 30 K     0.00000    0.00904    0.05417
 31 K    -0.00481   -0.00481    0.04564
 32 K     0.00481   -0.00481    0.04564
 33 K     0.00000   -0.00904    0.05417
 34 K    -0.00481    0.00481    0.04564
 35 K     0.00481    0.00481    0.04564

System changes: positions 

Initializing position-dependent things.

Density initialized from wave functions
           .--------------------------------------.  
          /|                                      |  
         / |                                      |  
        /  |                                      |  
       /   |                                      |  
      /    |                                      |  
     /     |                                      |  
    /      |                                      |  
   /       |                                      |  
  /        |                                      |  
 *         |                                      |  
 |         |                                      |  
 |         |                                      |  
 |         |                                      |  
 |         |                                      |  
 |         |                                      |  
 |      K  |         K            K               |  
 |         |    K            K            K       |  
 |         |                                      |  
 |  K      |     K            K                   |  
 |         |K            K             K          |  
 |         |                                      |  
 K      K  |  K      K     K      K               |  
 |         |    K            K            K       |  
 |       K |          K            K              |  
 |  K      |     K            K                   |  
 |         |                                      |  
 |         |K            K             K          |  
 |         |                                      |  
 K         |  K            K                      |  
 |       K |          K            K              |  
 |         |                                      |  
 |         |                                      |  
 |         |                                      |  
 |         .--------------------------------------.  
 |        /                                      /   
 |       /                                      /    
 |      /                                      /     
 |     /                                      /      
 |    /                                      /       
 |   /                                      /        
 |  /                                      /         
 | /                                      /          
 |/                                      /           
 *--------------------------------------*            

Positions:
   0 K      2.615068    2.615068    9.999349    ( 0.0000,  0.0000,  0.0000)
   1 K      7.845000    2.614870    9.999227    ( 0.0000,  0.0000,  0.0000)
   2 K     13.074932    2.615068    9.999349    ( 0.0000,  0.0000,  0.0000)
   3 K      2.614870    7.845000    9.999227    ( 0.0000,  0.0000,  0.0000)
   4 K      7.845000    7.845000    9.999259    ( 0.0000,  0.0000,  0.0000)
   5 K     13.075130    7.845000    9.999227    ( 0.0000,  0.0000,  0.0000)
   6 K      2.615068   13.074932    9.999349    ( 0.0000,  0.0000,  0.0000)
   7 K      7.845000   13.075130    9.999227    ( 0.0000,  0.0000,  0.0000)
   8 K     13.074932   13.074932    9.999349    ( 0.0000,  0.0000,  0.0000)
   9 K     -0.000000    0.000000   12.615204    ( 0.0000,  0.0000,  0.0000)
  10 K      5.230112    0.000000   12.615214    ( 0.0000,  0.0000,  0.0000)
  11 K     10.459888    0.000000   12.615214    ( 0.0000,  0.0000,  0.0000)
  12 K      0.000000    5.230112   12.615214    ( 0.0000,  0.0000,  0.0000)
  13 K      5.229932    5.229932   12.615177    ( 0.0000,  0.0000,  0.0000)
  14 K     10.460068    5.229932   12.615177    ( 0.0000,  0.0000,  0.0000)
  15 K      0.000000   10.459888   12.615214    ( 0.0000,  0.0000,  0.0000)
  16 K      5.229932   10.460068   12.615177    ( 0.0000,  0.0000,  0.0000)
  17 K     10.460068   10.460068   12.615177    ( 0.0000,  0.0000,  0.0000)
  18 K      2.615066    2.615066   15.229824    ( 0.0000,  0.0000,  0.0000)
  19 K      7.845000    2.614886   15.229787    ( 0.0000,  0.0000,  0.0000)
  20 K     13.074934    2.615066   15.229824    ( 0.0000,  0.0000,  0.0000)
  21 K      2.614886    7.845000   15.229787    ( 0.0000,  0.0000,  0.0000)
  22 K      7.845000    7.845000   15.229799    ( 0.0000,  0.0000,  0.0000)
  23 K     13.075114    7.845000   15.229787    ( 0.0000,  0.0000,  0.0000)
  24 K      2.615066   13.074934   15.229824    ( 0.0000,  0.0000,  0.0000)
  25 K      7.845000   13.075114   15.229787    ( 0.0000,  0.0000,  0.0000)
  26 K     13.074934   13.074934   15.229824    ( 0.0000,  0.0000,  0.0000)
  27 K      0.000000    0.000000   17.845741    ( 0.0000,  0.0000,  0.0000)
  28 K      5.230129    0.000000   17.845774    ( 0.0000,  0.0000,  0.0000)
  29 K     10.459871    0.000000   17.845774    ( 0.0000,  0.0000,  0.0000)
  30 K      0.000000    5.230129   17.845774    ( 0.0000,  0.0000,  0.0000)
  31 K      5.229931    5.229931   17.845652    ( 0.0000,  0.0000,  0.0000)
  32 K     10.460069    5.229931   17.845652    ( 0.0000,  0.0000,  0.0000)
  33 K      0.000000   10.459871   17.845774    ( 0.0000,  0.0000,  0.0000)
  34 K      5.229931   10.460069   17.845652    ( 0.0000,  0.0000,  0.0000)
  35 K     10.460069   10.460069   17.845652    ( 0.0000,  0.0000,  0.0000)

Unit cell:
           periodic     x           y           z      points  spacing
  1. axis:    yes   15.690000    0.000000    0.000000   100     0.1569
  2. axis:    yes    0.000000   15.690000    0.000000   100     0.1569
  3. axis:    no     0.000000    0.000000   27.845000   176     0.1582

  Lengths:  15.690000  15.690000  27.845000
  Angles:   90.000000  90.000000  90.000000

Effective grid spacing dv^(1/3) = 0.1573

     iter     time        total  log10-change:
                         energy  eigst   dens
iter:   1 11:10:49 -1460.686935  -4.96
iter:   2 11:21:20 -1460.686936  -5.90  -4.27c
iter:   3 11:31:43 -1460.686936c -6.55  -4.37c
iter:   4 11:42:25 -1460.686935c -6.97  -4.41c
Writing to output.gpw (mode='')

iter:   5 11:52:57 -1460.686932c -6.72  -4.51c
iter:   6 12:03:31 -1460.686933c -7.01  -4.70c
iter:   7 12:14:02 -1460.686934c -7.60c -4.96c

Converged after 7 iterations.

Dipole moment: (-24.064703, -24.064703, 0.000064) |e|*Ang

Energy contributions relative to reference atoms: (reference = -589761.115863)

Kinetic:       +186.211580
Potential:     -138.154365
External:        +0.000000
XC:            -1483.706789
Entropy (-ST):   -0.484808
Local:          -24.794956
--------------------------
Free energy:   -1460.929338
Extrapolated:  -1460.686934

Dipole-layer corrected work functions: 2.471654, 2.471607 eV

 Band  Eigenvalues  Occupancy
    0    -35.23093    2.00000
    1    -35.23091    2.00000
    2    -35.23083    2.00000
    3    -35.23082    2.00000
    4    -35.23081    2.00000
    5    -35.23080    2.00000
    6    -35.23072    2.00000
    7    -35.23072    2.00000
    8    -35.23072    2.00000
    9    -35.23072    2.00000
   10    -35.23069    2.00000
   11    -35.23067    2.00000
   12    -35.23062    2.00000
   13    -35.23062    2.00000
   14    -35.23058    2.00000
   15    -35.23057    2.00000
   16    -35.23049    2.00000
   17    -35.23045    2.00000
   18    -34.96781    2.00000
   19    -34.96725    2.00000
   20    -34.96720    2.00000
   21    -34.96677    2.00000
   22    -34.96630    2.00000
   23    -34.96626    2.00000
   24    -34.96607    2.00000
   25    -34.96602    2.00000
   26    -34.96572    2.00000
   27    -34.96546    2.00000
   28    -34.96535    2.00000
   29    -34.96532    2.00000
   30    -34.96530    2.00000
   31    -34.96526    2.00000
   32    -34.96480    2.00000
   33    -34.96457    2.00000
   34    -34.96452    2.00000
   35    -34.96415    2.00000
   36    -18.69783    2.00000
   37    -18.69762    2.00000
   38    -18.69761    2.00000
   39    -18.69743    2.00000
   40    -18.69734    2.00000
   41    -18.69731    2.00000
   42    -18.69726    2.00000
   43    -18.69724    2.00000
   44    -18.69717    2.00000
   45    -18.69715    2.00000
   46    -18.69707    2.00000
   47    -18.69682    2.00000
   48    -18.69654    2.00000
   49    -18.69651    2.00000
   50    -18.69645    2.00000
   51    -18.69642    2.00000
   52    -18.69570    2.00000
   53    -18.69568    2.00000
   54    -18.68738    2.00000
   55    -18.68736    2.00000
   56    -18.68733    2.00000
   57    -18.68732    2.00000
   58    -18.68694    2.00000
   59    -18.68693    2.00000
   60    -18.68691    2.00000
   61    -18.68690    2.00000
   62    -18.68663    2.00000
   63    -18.68655    2.00000
   64    -18.68644    2.00000
   65    -18.68642    2.00000
   66    -18.68287    2.00000
   67    -18.68286    2.00000
   68    -18.68283    2.00000
   69    -18.68282    2.00000
   70    -18.68248    2.00000
   71    -18.68235    2.00000
   72    -18.68228    2.00000
   73    -18.68225    2.00000
   74    -18.68187    2.00000
   75    -18.68186    2.00000
   76    -18.68182    2.00000
   77    -18.68181    2.00000
   78    -18.67837    2.00000
   79    -18.67831    2.00000
   80    -18.67828    2.00000
   81    -18.67828    2.00000
   82    -18.67777    2.00000
   83    -18.67776    2.00000
   84    -18.67772    2.00000
   85    -18.67771    2.00000
   86    -18.67718    2.00000
   87    -18.67717    2.00000
   88    -18.67716    2.00000
   89    -18.67715    2.00000
   90    -18.44738    2.00000
   91    -18.44719    2.00000
   92    -18.44716    2.00000
   93    -18.44710    2.00000
   94    -18.44709    2.00000
   95    -18.44691    2.00000
   96    -18.44691    2.00000
   97    -18.44636    2.00000
   98    -18.44594    2.00000
   99    -18.44557    2.00000
  100    -18.44554    2.00000
  101    -18.44525    2.00000
  102    -18.44522    2.00000
  103    -18.44449    2.00000
  104    -18.44176    2.00000
  105    -18.44175    2.00000
  106    -18.44049    2.00000
  107    -18.43573    2.00000
  108    -18.43480    2.00000
  109    -18.43457    2.00000
  110    -18.43153    2.00000
  111    -18.43122    2.00000
  112    -18.43122    2.00000
  113    -18.43064    2.00000
  114    -18.43062    2.00000
  115    -18.42880    2.00000
  116    -18.42545    2.00000
  117    -18.42543    2.00000
  118    -18.42473    2.00000
  119    -18.42473    2.00000
  120    -18.41966    2.00000
  121    -18.41927    2.00000
  122    -18.41925    2.00000
  123    -18.41743    2.00000
  124    -18.41443    2.00000
  125    -18.41441    2.00000
  126    -18.41431    2.00000
  127    -18.41430    2.00000
  128    -18.41324    2.00000
  129    -18.41321    2.00000
  130    -18.41310    2.00000
  131    -18.41310    2.00000
  132    -18.41278    2.00000
  133    -18.41263    2.00000
  134    -18.41236    2.00000
  135    -18.41216    2.00000
  136    -18.41214    2.00000
  137    -18.41213    2.00000
  138    -18.41213    2.00000
  139    -18.41110    2.00000
  140    -18.41107    2.00000
  141    -18.41099    2.00000
  142    -18.41047    2.00000
  143    -18.40918    2.00000
  144     -4.36213    2.00000
  145     -4.02276    2.00000
  146     -4.02266    2.00000
  147     -3.69250    2.00000
  148     -3.68587    2.00000
  149     -3.37387    2.00000
  150     -3.37377    2.00000
  151     -3.36140    2.00000
  152     -3.36131    2.00000
  153     -3.06254    1.99999
  154     -3.06250    1.99999
  155     -3.04163    1.99998
  156     -2.75114    1.99256
  157     -2.74752    1.99200
  158     -2.74744    1.99199
  159     -2.47484    1.03212
  160     -2.47173    1.00103
  161     -2.47170    1.00070
  162     -2.45037    0.79058
  163     -2.45029    0.78977
  164     -2.44029    0.69647
  165     -2.44026    0.69617
  166     -2.18624    0.00662
  167     -2.18614    0.00661
  168     -2.15002    0.00321
  169     -1.97759    0.00010
  170     -1.97758    0.00010
  171     -1.88429    0.00002
  172     -1.85277    0.00001
  173     -1.68329    0.00000
  174     -1.63203    0.00000
  175     -1.63200    0.00000
  176     -1.53599    0.00000
  177     -1.53576    0.00000
  178     -1.24818    0.00000
  179     -1.04764    0.00000

Fermi level: -2.47163

Gap: 0.021 eV
Transition (v -> c):
  (s=0, k=0, n=161, [0.25, 0.25, 0.00]) -> (s=0, k=0, n=162, [0.25, 0.25, 0.00])
Writing to output.gpw (mode='')


Forces in eV/Ang:
  0 K     0.00461    0.00461   -0.04494
  1 K     0.00000   -0.00863   -0.05393
  2 K    -0.00461    0.00461   -0.04494
  3 K    -0.00863    0.00000   -0.05393
  4 K     0.00000    0.00000   -0.05113
  5 K     0.00863    0.00000   -0.05393
  6 K     0.00461   -0.00461   -0.04494
  7 K     0.00000    0.00863   -0.05393
  8 K    -0.00461   -0.00461   -0.04494
  9 K    -0.00000    0.00000    0.01475
 10 K     0.00755    0.00000    0.01554
 11 K    -0.00755    0.00000    0.01554
 12 K     0.00000    0.00755    0.01554
 13 K    -0.00441   -0.00441    0.01273
 14 K     0.00441   -0.00441    0.01273
 15 K     0.00000   -0.00755    0.01554
 16 K    -0.00441    0.00441    0.01273
 17 K     0.00441    0.00441    0.01273
 18 K     0.00444    0.00444   -0.01254
 19 K     0.00000   -0.00749   -0.01534
 20 K    -0.00444    0.00444   -0.01254
 21 K    -0.00749    0.00000   -0.01534
 22 K     0.00000    0.00000   -0.01453
 23 K     0.00749    0.00000   -0.01534
 24 K     0.00444   -0.00444   -0.01254
 25 K     0.00000    0.00749   -0.01534
 26 K    -0.00444   -0.00444   -0.01254
 27 K     0.00000    0.00000    0.05124
 28 K     0.00872    0.00000    0.05400
 29 K    -0.00872    0.00000    0.05400
 30 K     0.00000    0.00872    0.05400
 31 K    -0.00456   -0.00456    0.04499
 32 K     0.00456   -0.00456    0.04499
 33 K     0.00000   -0.00872    0.05400
 34 K    -0.00456    0.00456    0.04499
 35 K     0.00456    0.00456    0.04499

System changes: positions 

Initializing position-dependent things.

Density initialized from wave functions
           .--------------------------------------.  
          /|                                      |  
         / |                                      |  
        /  |                                      |  
       /   |                                      |  
      /    |                                      |  
     /     |                                      |  
    /      |                                      |  
   /       |                                      |  
  /        |                                      |  
 *         |                                      |  
 |         |                                      |  
 |         |                                      |  
 |         |                                      |  
 |         |                                      |  
 |         |                                      |  
 |      K  |         K            K               |  
 |         |    K            K            K       |  
 |         |                                      |  
 |  K      |     K            K                   |  
 |         |K            K             K          |  
 |         |                                      |  
 K      K  |  K      K     K      K               |  
 |         |    K            K            K       |  
 |       K |          K            K              |  
 |  K      |     K            K                   |  
 |         |                                      |  
 |         |K            K             K          |  
 |         |                                      |  
 K         |  K            K                      |  
 |       K |          K            K              |  
 |         |                                      |  
 |         |                                      |  
 |         |                                      |  
 |         .--------------------------------------.  
 |        /                                      /   
 |       /                                      /    
 |      /                                      /     
 |     /                                      /      
 |    /                                      /       
 |   /                                      /        
 |  /                                      /         
 | /                                      /          
 |/                                      /           
 *--------------------------------------*            

Positions:
   0 K      2.615912    2.615912    9.991132    ( 0.0000,  0.0000,  0.0000)
   1 K      7.845000    2.613291    9.989369    ( 0.0000,  0.0000,  0.0000)
   2 K     13.074088    2.615912    9.991132    ( 0.0000,  0.0000,  0.0000)
   3 K      2.613291    7.845000    9.989369    ( 0.0000,  0.0000,  0.0000)
   4 K      7.845000    7.845000    9.989909    ( 0.0000,  0.0000,  0.0000)
   5 K     13.076709    7.845000    9.989369    ( 0.0000,  0.0000,  0.0000)
   6 K      2.615912   13.074088    9.991132    ( 0.0000,  0.0000,  0.0000)
   7 K      7.845000   13.076709    9.989369    ( 0.0000,  0.0000,  0.0000)
   8 K     13.074088   13.074088    9.991132    ( 0.0000,  0.0000,  0.0000)
   9 K      0.000000    0.000000   12.617898    ( 0.0000,  0.0000,  0.0000)
  10 K      5.231493   -0.000000   12.618052    ( 0.0000,  0.0000,  0.0000)
  11 K     10.458507    0.000000   12.618052    ( 0.0000,  0.0000,  0.0000)
  12 K     -0.000000    5.231493   12.618052    ( 0.0000,  0.0000,  0.0000)
  13 K      5.229125    5.229125   12.617501    ( 0.0000,  0.0000,  0.0000)
  14 K     10.460875    5.229125   12.617501    ( 0.0000,  0.0000,  0.0000)
  15 K     -0.000000   10.458507   12.618052    ( 0.0000,  0.0000,  0.0000)
  16 K      5.229125   10.460875   12.617501    ( 0.0000,  0.0000,  0.0000)
  17 K     10.460875   10.460875   12.617501    ( 0.0000,  0.0000,  0.0000)
  18 K      2.615878    2.615878   15.227532    ( 0.0000,  0.0000,  0.0000)
  19 K      7.845000    2.613514   15.226985    ( 0.0000,  0.0000,  0.0000)
  20 K     13.074122    2.615878   15.227532    ( 0.0000,  0.0000,  0.0000)
  21 K      2.613514    7.845000   15.226985    ( 0.0000,  0.0000,  0.0000)
  22 K      7.845000    7.845000   15.227144    ( 0.0000,  0.0000,  0.0000)
  23 K     13.076486    7.845000   15.226985    ( 0.0000,  0.0000,  0.0000)
  24 K      2.615878   13.074122   15.227532    ( 0.0000,  0.0000,  0.0000)
  25 K      7.845000   13.076486   15.226985    ( 0.0000,  0.0000,  0.0000)
  26 K     13.074122   13.074122   15.227532    ( 0.0000,  0.0000,  0.0000)
  27 K      0.000000   -0.000000   17.855111    ( 0.0000,  0.0000,  0.0000)
  28 K      5.231725   -0.000000   17.855646    ( 0.0000,  0.0000,  0.0000)
  29 K     10.458275    0.000000   17.855646    ( 0.0000,  0.0000,  0.0000)
  30 K      0.000000    5.231725   17.855646    ( 0.0000,  0.0000,  0.0000)
  31 K      5.229097    5.229097   17.853878    ( 0.0000,  0.0000,  0.0000)
  32 K     10.460903    5.229097   17.853878    ( 0.0000,  0.0000,  0.0000)
  33 K     -0.000000   10.458275   17.855646    ( 0.0000,  0.0000,  0.0000)
  34 K      5.229097   10.460903   17.853878    ( 0.0000,  0.0000,  0.0000)
  35 K     10.460903   10.460903   17.853878    ( 0.0000,  0.0000,  0.0000)

Unit cell:
           periodic     x           y           z      points  spacing
  1. axis:    yes   15.690000    0.000000    0.000000   100     0.1569
  2. axis:    yes    0.000000   15.690000    0.000000   100     0.1569
  3. axis:    no     0.000000    0.000000   27.845000   176     0.1582

  Lengths:  15.690000  15.690000  27.845000
  Angles:   90.000000  90.000000  90.000000

Effective grid spacing dv^(1/3) = 0.1573

     iter     time        total  log10-change:
                         energy  eigst   dens
iter:   1 12:25:10 -1460.694606  -2.76
iter:   2 12:35:44 -1460.694993  -3.72  -3.37
iter:   3 12:46:08 -1460.695005c -4.41  -3.36
iter:   4 12:56:37 -1460.695915c -4.51  -3.26
Writing to output.gpw (mode='')

iter:   5 13:07:28 -1460.695884c -4.49  -3.41
iter:   6 13:18:01 -1460.695376c -5.22  -3.44
iter:   7 13:28:32 -1460.695273c -5.59  -3.72
iter:   8 13:39:02 -1460.695265c -5.74  -3.94
iter:   9 13:49:30 -1460.695266c -5.99  -3.95
Writing to output.gpw (mode='')

iter:  10 13:59:41 -1460.695296c -5.85  -3.99
iter:  11 14:10:17 -1460.695269c -5.90  -4.30c
iter:  12 14:20:01 -1460.695276c -6.43  -4.33c
iter:  13 14:27:36 -1460.695271c -6.39  -4.33c
iter:  14 14:37:08 -1460.695265c -6.57  -4.25c
Writing to output.gpw (mode='')

iter:  15 14:47:43 -1460.695265c -7.02  -4.41c
iter:  16 14:54:49 -1460.695261c -7.06  -4.51c
iter:  17 15:04:39 -1460.695268c -6.93  -4.67c
iter:  18 15:14:47 -1460.695273c -6.92  -4.76c
iter:  19 15:23:21 -1460.695273c -7.35  -4.78c
Writing to output.gpw (mode='')

iter:  20 15:32:22 -1460.695266c -7.14  -4.84c
iter:  21 15:40:03 -1460.695265c -7.40c -4.73c

Converged after 21 iterations.

Dipole moment: (-24.064671, -24.064671, 0.000106) |e|*Ang

Energy contributions relative to reference atoms: (reference = -589761.115863)

Kinetic:       +186.059648
Potential:     -138.097065
External:        +0.000000
XC:            -1483.616943
Entropy (-ST):   -0.485262
Local:          -24.798274
--------------------------
Free energy:   -1460.937897
Extrapolated:  -1460.695265

Dipole-layer corrected work functions: 2.472123, 2.472045 eV

 Band  Eigenvalues  Occupancy
    0    -35.23192    2.00000
    1    -35.23186    2.00000
    2    -35.23184    2.00000
    3    -35.23176    2.00000
    4    -35.23175    2.00000
    5    -35.23174    2.00000
    6    -35.23173    2.00000
    7    -35.23170    2.00000
    8    -35.23163    2.00000
    9    -35.23162    2.00000
   10    -35.23161    2.00000
   11    -35.23157    2.00000
   12    -35.23153    2.00000
   13    -35.23150    2.00000
   14    -35.23150    2.00000
   15    -35.23144    2.00000
   16    -35.23142    2.00000
   17    -35.23137    2.00000
   18    -34.96944    2.00000
   19    -34.96889    2.00000
   20    -34.96882    2.00000
   21    -34.96839    2.00000
   22    -34.96794    2.00000
   23    -34.96786    2.00000
   24    -34.96770    2.00000
   25    -34.96762    2.00000
   26    -34.96733    2.00000
   27    -34.96707    2.00000
   28    -34.96698    2.00000
   29    -34.96693    2.00000
   30    -34.96691    2.00000
   31    -34.96685    2.00000
   32    -34.96641    2.00000
   33    -34.96618    2.00000
   34    -34.96610    2.00000
   35    -34.96574    2.00000
   36    -18.69871    2.00000
   37    -18.69853    2.00000
   38    -18.69845    2.00000
   39    -18.69832    2.00000
   40    -18.69824    2.00000
   41    -18.69817    2.00000
   42    -18.69814    2.00000
   43    -18.69810    2.00000
   44    -18.69808    2.00000
   45    -18.69795    2.00000
   46    -18.69792    2.00000
   47    -18.69768    2.00000
   48    -18.69744    2.00000
   49    -18.69735    2.00000
   50    -18.69734    2.00000
   51    -18.69724    2.00000
   52    -18.69660    2.00000
   53    -18.69654    2.00000
   54    -18.68825    2.00000
   55    -18.68823    2.00000
   56    -18.68819    2.00000
   57    -18.68816    2.00000
   58    -18.68782    2.00000
   59    -18.68779    2.00000
   60    -18.68776    2.00000
   61    -18.68774    2.00000
   62    -18.68748    2.00000
   63    -18.68740    2.00000
   64    -18.68729    2.00000
   65    -18.68727    2.00000
   66    -18.68375    2.00000
   67    -18.68373    2.00000
   68    -18.68369    2.00000
   69    -18.68366    2.00000
   70    -18.68335    2.00000
   71    -18.68320    2.00000
   72    -18.68317    2.00000
   73    -18.68311    2.00000
   74    -18.68275    2.00000
   75    -18.68273    2.00000
   76    -18.68268    2.00000
   77    -18.68266    2.00000
   78    -18.67924    2.00000
   79    -18.67919    2.00000
   80    -18.67914    2.00000
   81    -18.67913    2.00000
   82    -18.67866    2.00000
   83    -18.67864    2.00000
   84    -18.67859    2.00000
   85    -18.67857    2.00000
   86    -18.67809    2.00000
   87    -18.67806    2.00000
   88    -18.67803    2.00000
   89    -18.67801    2.00000
   90    -18.44912    2.00000
   91    -18.44886    2.00000
   92    -18.44883    2.00000
   93    -18.44880    2.00000
   94    -18.44876    2.00000
   95    -18.44864    2.00000
   96    -18.44858    2.00000
   97    -18.44814    2.00000
   98    -18.44757    2.00000
   99    -18.44731    2.00000
  100    -18.44726    2.00000
  101    -18.44684    2.00000
  102    -18.44683    2.00000
  103    -18.44605    2.00000
  104    -18.44351    2.00000
  105    -18.44343    2.00000
  106    -18.44224    2.00000
  107    -18.43736    2.00000
  108    -18.43650    2.00000
  109    -18.43630    2.00000
  110    -18.43306    2.00000
  111    -18.43295    2.00000
  112    -18.43288    2.00000
  113    -18.43225    2.00000
  114    -18.43224    2.00000
  115    -18.43032    2.00000
  116    -18.42710    2.00000
  117    -18.42705    2.00000
  118    -18.42632    2.00000
  119    -18.42626    2.00000
  120    -18.42119    2.00000
  121    -18.42086    2.00000
  122    -18.42081    2.00000
  123    -18.41892    2.00000
  124    -18.41600    2.00000
  125    -18.41590    2.00000
  126    -18.41583    2.00000
  127    -18.41576    2.00000
  128    -18.41475    2.00000
  129    -18.41464    2.00000
  130    -18.41461    2.00000
  131    -18.41455    2.00000
  132    -18.41429    2.00000
  133    -18.41412    2.00000
  134    -18.41383    2.00000
  135    -18.41369    2.00000
  136    -18.41363    2.00000
  137    -18.41359    2.00000
  138    -18.41357    2.00000
  139    -18.41266    2.00000
  140    -18.41254    2.00000
  141    -18.41251    2.00000
  142    -18.41199    2.00000
  143    -18.41070    2.00000
  144     -4.36143    2.00000
  145     -4.02244    2.00000
  146     -4.02167    2.00000
  147     -3.69188    2.00000
  148     -3.68543    2.00000
  149     -3.37359    2.00000
  150     -3.37285    2.00000
  151     -3.36139    2.00000
  152     -3.36066    2.00000
  153     -3.06220    1.99999
  154     -3.06166    1.99998
  155     -3.04138    1.99998
  156     -2.75418    1.99293
  157     -2.74761    1.99195
  158     -2.74693    1.99183
  159     -2.47426    1.02173
  160     -2.47127    0.99190
  161     -2.47089    0.98802
  162     -2.45342    0.81553
  163     -2.45262    0.80780
  164     -2.44034    0.69281
  165     -2.43992    0.68904
  166     -2.18589    0.00651
  167     -2.18518    0.00642
  168     -2.15242    0.00334
  169     -1.97856    0.00010
  170     -1.97841    0.00010
  171     -1.88422    0.00002
  172     -1.85595    0.00001
  173     -1.68264    0.00000
  174     -1.63289    0.00000
  175     -1.63261    0.00000
  176     -1.55402    0.00000
  177     -1.55300    0.00000
  178     -1.33170    0.00000
  179     -1.21610    0.00000

Fermi level: -2.47208

Gap: 0.003 eV
Transition (v -> c):
  (s=0, k=0, n=159, [0.25, 0.25, 0.00]) -> (s=0, k=0, n=160, [0.25, 0.25, 0.00])
Writing to output.gpw (mode='')


Forces in eV/Ang:
  0 K     0.00308    0.00308   -0.03825
  1 K     0.00000   -0.00336   -0.04902
  2 K    -0.00308    0.00308   -0.03825
  3 K    -0.00336    0.00000   -0.04902
  4 K     0.00000    0.00000   -0.04572
  5 K     0.00336    0.00000   -0.04902
  6 K     0.00308   -0.00308   -0.03825
  7 K     0.00000    0.00336   -0.04902
  8 K    -0.00308   -0.00308   -0.03825
  9 K     0.00000    0.00000    0.01107
 10 K     0.00725    0.00000    0.01195
 11 K    -0.00725    0.00000    0.01195
 12 K     0.00000    0.00725    0.01195
 13 K    -0.00372   -0.00372    0.00726
 14 K     0.00372   -0.00372    0.00726
 15 K     0.00000   -0.00725    0.01195
 16 K    -0.00372    0.00372    0.00726
 17 K     0.00372    0.00372    0.00726
 18 K     0.00392    0.00392   -0.00731
 19 K     0.00000   -0.00704   -0.01203
 20 K    -0.00392    0.00392   -0.00731
 21 K    -0.00704    0.00000   -0.01203
 22 K     0.00000    0.00000   -0.01122
 23 K     0.00704    0.00000   -0.01203
 24 K     0.00392   -0.00392   -0.00731
 25 K     0.00000    0.00704   -0.01203
 26 K    -0.00392   -0.00392   -0.00731
 27 K     0.00000    0.00000    0.04579
 28 K     0.00341    0.00000    0.04899
 29 K    -0.00341    0.00000    0.04899
 30 K     0.00000    0.00341    0.04899
 31 K    -0.00295   -0.00295    0.03811
 32 K     0.00295   -0.00295    0.03811
 33 K     0.00000   -0.00341    0.04899
 34 K    -0.00295    0.00295    0.03811
 35 K     0.00295    0.00295    0.03811

Timing:                                      incl.     excl.
-------------------------------------------------------------------
Density initialized from wave functions:     6.792     1.342   0.0% |
 Symmetrize density:                         5.450     5.450   0.0% |
Forces:                                     15.743    15.743   0.0% |
Hamiltonian:                               608.266     0.001   0.0% |
 Atomic:                                     1.046     0.127   0.0% |
  XC Correction:                             0.918     0.918   0.0% |
 Calculate atomic Hamiltonians:              0.453     0.453   0.0% |
 Communicate:                                1.245     1.245   0.0% |
 Hartree integrate/restrict:                 0.312     0.312   0.0% |
 Initialize Hamiltonian:                     0.000     0.000   0.0% |
 Poisson:                                    6.361     2.334   0.0% |
  Communicate from 1D:                       0.870     0.870   0.0% |
  Communicate from 2D:                       0.921     0.921   0.0% |
  Communicate to 1D:                         0.305     0.305   0.0% |
  Communicate to 2D:                         1.018     1.018   0.0% |
  FFT 1D:                                    0.492     0.492   0.0% |
  FFT 2D:                                    0.421     0.421   0.0% |
 XC 3D grid:                               598.806    23.481   0.0% |
  VdW-DF integral:                         575.326     1.591   0.0% |
   Convolution:                             47.682    47.682   0.1% |
   FFT:                                     11.604    11.604   0.0% |
   gather:                                 392.544   392.544   0.7% |
   hmm1:                                     9.165     9.165   0.0% |
   hmm2:                                    12.852    12.852   0.0% |
   iFFT:                                     9.897     9.897   0.0% |
   potential:                               70.703     0.385   0.0% |
    collect:                                12.215    12.215   0.0% |
    p1:                                     28.361    28.361   0.0% |
    p2:                                     18.434    18.434   0.0% |
    sum:                                    11.308    11.308   0.0% |
   splines:                                 19.289    19.289   0.0% |
 vbar:                                       0.042     0.042   0.0% |
LCAO initialization:                        11.603     0.100   0.0% |
 LCAO eigensolver:                           0.436     0.001   0.0% |
  Calculate projections:                     0.000     0.000   0.0% |
  DenseAtomicCorrection:                     0.000     0.000   0.0% |
  Distribute overlap matrix:                 0.275     0.275   0.0% |
  Orbital Layouts:                           0.147     0.147   0.0% |
  Potential matrix:                          0.002     0.002   0.0% |
  Sum over cells:                            0.010     0.010   0.0% |
 LCAO to grid:                              10.739    10.739   0.0% |
 Set positions (LCAO WFS):                   0.328     0.259   0.0% |
  Basic WFS set positions:                   0.023     0.023   0.0% |
  Basis functions set positions:             0.001     0.001   0.0% |
  P tci:                                     0.000     0.000   0.0% |
  ST tci:                                    0.011     0.011   0.0% |
  mktci:                                     0.033     0.033   0.0% |
Redistribute:                                0.002     0.002   0.0% |
SCF-cycle:                               59124.625    43.575   0.1% |
 Davidson:                               40219.009 18628.887  31.1% |-----------|
  Apply hamiltonian:                      1536.987  1536.987   2.6% ||
  Subspace diag:                          3772.475     0.019   0.0% |
   calc_h_matrix:                         1320.364   613.536   1.0% |
    Apply hamiltonian:                     706.828   706.828   1.2% |
   diagonalize:                            105.501   105.501   0.2% |
   rotate_psi:                            2346.591  2346.591   3.9% |-|
  calc. matrices:                         9266.181  6709.247  11.2% |---|
   Apply hamiltonian:                     2556.935  2556.935   4.3% |-|
  diagonalize:                             144.995   144.995   0.2% |
  rotate_psi:                             6869.484  6869.484  11.5% |----|
 Density:                                  340.117     0.004   0.0% |
  Atomic density matrices:                   2.436     2.436   0.0% |
  Mix:                                      34.525    34.525   0.1% |
  Multipole moments:                         0.918     0.918   0.0% |
  Pseudo density:                          302.233    46.255   0.1% |
   Symmetrize density:                     255.979   255.979   0.4% |
 Hamiltonian:                            18469.767     0.017   0.0% |
  Atomic:                                   31.062     5.531   0.0% |
   XC Correction:                           25.531    25.531   0.0% |
  Calculate atomic Hamiltonians:            12.485    12.485   0.0% |
  Communicate:                              39.929    39.929   0.1% |
  Hartree integrate/restrict:               17.223    17.223   0.0% |
  Poisson:                                 196.946    73.825   0.1% |
   Communicate from 1D:                     25.416    25.416   0.0% |
   Communicate from 2D:                     28.447    28.447   0.0% |
   Communicate to 1D:                       14.623    14.623   0.0% |
   Communicate to 2D:                       25.973    25.973   0.0% |
   FFT 1D:                                  14.751    14.751   0.0% |
   FFT 2D:                                  13.912    13.912   0.0% |
  XC 3D grid:                            18170.874   692.406   1.2% |
   VdW-DF integral:                      17478.467    57.714   0.1% |
    Convolution:                          1495.578  1495.578   2.5% ||
    FFT:                                   331.575   331.575   0.6% |
    gather:                              12376.679 12376.679  20.7% |-------|
    hmm1:                                  299.978   299.978   0.5% |
    hmm2:                                  396.550   396.550   0.7% |
    iFFT:                                  316.995   316.995   0.5% |
    potential:                            2203.397    11.315   0.0% |
     collect:                              366.513   366.513   0.6% |
     p1:                                   848.399   848.399   1.4% ||
     p2:                                   579.849   579.849   1.0% |
     sum:                                  397.321   397.321   0.7% |
    splines:                                 0.001     0.001   0.0% |
  vbar:                                      1.232     1.232   0.0% |
 Orthonormalize:                            52.158     0.001   0.0% |
  calc_s_matrix:                             8.766     8.766   0.0% |
  inverse-cholesky:                          8.094     8.094   0.0% |
  projections:                               0.000     0.000   0.0% |
  rotate_psi_s:                             35.296    35.296   0.1% |
Set symmetry:                                0.010     0.010   0.0% |
Other:                                      47.356    47.356   0.1% |
-------------------------------------------------------------------
Total:                                             59814.398 100.0%

Memory usage: 3.23 GiB
Date: Wed Jan 18 15:40:10 2023
