
  ___ ___ ___ _ _ _  
 |   |   |_  | | | | 
 | | | | | . | | | | 
 |__ |  _|___|_____|  22.8.0
 |___|_|             

User:   vazumah@c02.hercules
Date:   Thu Jan 19 00:43:43 2023
Arch:   x86_64
Pid:    16026
CWD:    /home/vazumah/Python_projects/LiNRR/autocad_start/slab_experiments/fixed_slab_def_vacuum/K/bcc100/substrate
Python: 3.10.8
gpaw:   /home/vazumah/.conda/envs/GPAW/lib/python3.10/site-packages/gpaw
_gpaw:  /home/vazumah/.conda/envs/GPAW/lib/python3.10/site-packages/
        _gpaw.cpython-310-x86_64-linux-gnu.so
ase:    /home/vazumah/.conda/envs/GPAW/lib/python3.10/site-packages/ase (version 3.22.1)
numpy:  /home/vazumah/.conda/envs/GPAW/lib/python3.10/site-packages/numpy (version 1.24.1)
scipy:  /home/vazumah/.conda/envs/GPAW/lib/python3.10/site-packages/scipy (version 1.10.0)
libxc:  5.2.3
units:  Angstrom and eV
cores: 24
OpenMP: True
OMP_NUM_THREADS: 1

Input parameters:
  eigensolver: {name: dav,
                niter: 3}
  h: 0.16
  kpts: {size: [2, 2, 1]}
  maxiter: 999
  mixer: {backend: pulay,
          beta: 0.02,
          method: separate,
          nmaxold: 5,
          weight: 100}
  occupations: {name: fermi-dirac,
                width: 0.05}
  poissonsolver: {dipolelayer: xy}
  xc: BEEF-vdW

System changes: positions, numbers, cell, pbc, initial_charges, initial_magmoms 

Initialize ...

species:
  K:
    name: Potassium
    id: 04190408da443a44668134082ce1c192
    Z: 19.0
    valence: 9
    core: 10
    charge: 0.0
    file: /home/vazumah/.conda/envs/GPAW/share/gpaw/K.PBE.gz
    compensation charges: {type: gauss,
                           rc: 0.35,
                           lmax: 2}
    cutoffs: {filter: 1.91,
              core: 1.27}
    valence states:
      #              energy  rcut
      - 3s(2.00)   -35.338   1.122
      - 4s(1.00)    -2.319   1.122
      - 3p(6.00)   -18.813   1.106
      -  p           8.398   1.106
      -  d           0.000   0.937
  
    # Using partial waves for K as LCAO basis

Reference energy: -589761.115863  # eV

Spin-paired calculation

Convergence criteria:
 Maximum [total energy] change in last 3 cyles: 0.0005 eV / electron
 Maximum integral of absolute [dens]ity change: 0.0001 electrons / valence electron
 Maximum integral of absolute [eigenst]ate change: 4e-08 eV^2 / valence electron
 Maximum number of scf [iter]ations: 999
 (Square brackets indicate name in SCF output, whereas a 'c' in
 the SCF output indicates the quantity has converged.)

Symmetries present (total): 8

  ( 1  0  0)  ( 1  0  0)  ( 0  1  0)  ( 0  1  0)  ( 0 -1  0)  ( 0 -1  0)
  ( 0  1  0)  ( 0 -1  0)  ( 1  0  0)  (-1  0  0)  ( 1  0  0)  (-1  0  0)
  ( 0  0  1)  ( 0  0  1)  ( 0  0  1)  ( 0  0  1)  ( 0  0  1)  ( 0  0  1)

  (-1  0  0)  (-1  0  0)
  ( 0  1  0)  ( 0 -1  0)
  ( 0  0  1)  ( 0  0  1)

4 k-points: 2 x 2 x 1 Monkhorst-Pack grid
1 k-point in the irreducible part of the Brillouin zone
       k-points in crystal coordinates                weights
   0:     0.25000000    0.25000000    0.00000000          4/4

Wave functions: Uniform real-space grid
  Kinetic energy operator: 6*3+1=19 point O(h^6) finite-difference Laplacian
  ScaLapack parameters: grid=1x1, blocksize=None
  Wavefunction extrapolation:
    Improved wavefunction reuse through dual PAW basis 

Occupation numbers: Fermi-Dirac:
  width: 0.0500  # eV
 

Eigensolver
   Davidson(niter=3) 

Densities:
  Coarse grid: 100*100*176 grid
  Fine grid: 200*200*352 grid
  Total Charge: 0.000000 

Density mixing:
  Method: separate
  Backend: pulay
  Linear mixing parameter: 0.02
  old densities: 5
  Damping of long wavelength oscillations: 100 

Hamiltonian:
  XC and Coulomb potentials evaluated on a 200*200*352 grid
  Using the BEEF-vdW Exchange-Correlation functional
  Interpolation: tri-quintic (5. degree polynomial)
  Poisson solver: FastPoissonSolver using
    Stencil: 6*3+1=19 point O(h^6) finite-difference Laplacian
    FFT axes: [0, 1]
    FST axes: [2]

Dipole correction along z-axis 

XC parameters: BEEF-vdW with 2 nearest neighbor stencil

Memory estimate:
  Process memory now: 133.38 MiB
  Calculator: 453.44 MiB
    Density: 30.07 MiB
      Arrays: 14.46 MiB
      Localized functions: 10.03 MiB
      Mixer: 5.58 MiB
    Hamiltonian: 10.13 MiB
      Arrays: 9.45 MiB
      XC: 0.00 MiB
      Poisson: 0.00 MiB
      vbar: 0.68 MiB
    Wavefunctions: 413.24 MiB
      Arrays psit_nG: 200.78 MiB
      Eigensolver: 211.30 MiB
      Projections: 0.05 MiB
      Projectors: 1.11 MiB

Total number of cores used: 24
Domain decomposition: 2 x 3 x 4

Number of atoms: 36
Number of atomic orbitals: 180
Number of bands in calculation: 180
Number of valence electrons: 324
Bands to converge: occupied

... initialized

Initializing position-dependent things.

Density initialized from atomic densities
Creating initial wave functions:
  180 bands from LCAO basis set

           .--------------------------------------.  
          /|                                      |  
         / |                                      |  
        /  |                                      |  
       /   |                                      |  
      /    |                                      |  
     /     |                                      |  
    /      |                                      |  
   /       |                                      |  
  /        |                                      |  
 *         |                                      |  
 |         |                                      |  
 |         |                                      |  
 |         |                                      |  
 |         |                                      |  
 |         |                                      |  
 |      K  |         K            K               |  
 |         |    K            K            K       |  
 |         |                                      |  
 |  K      |     K            K                   |  
 |         |K            K             K          |  
 |         |                                      |  
 K      K  |  K      K     K      K               |  
 |         |    K            K            K       |  
 |       K |          K            K              |  
 |  K      |     K            K                   |  
 |         |                                      |  
 |         |K            K             K          |  
 |         |                                      |  
 K         |  K            K                      |  
 |       K |          K            K              |  
 |         |                                      |  
 |         |                                      |  
 |         |                                      |  
 |         .--------------------------------------.  
 |        /                                      /   
 |       /                                      /    
 |      /                                      /     
 |     /                                      /      
 |    /                                      /       
 |   /                                      /        
 |  /                                      /         
 | /                                      /          
 |/                                      /           
 *--------------------------------------*            

Positions:
   0 K      2.615000    2.615000   10.000000    ( 0.0000,  0.0000,  0.0000)
   1 K      7.845000    2.615000   10.000000    ( 0.0000,  0.0000,  0.0000)
   2 K     13.075000    2.615000   10.000000    ( 0.0000,  0.0000,  0.0000)
   3 K      2.615000    7.845000   10.000000    ( 0.0000,  0.0000,  0.0000)
   4 K      7.845000    7.845000   10.000000    ( 0.0000,  0.0000,  0.0000)
   5 K     13.075000    7.845000   10.000000    ( 0.0000,  0.0000,  0.0000)
   6 K      2.615000   13.075000   10.000000    ( 0.0000,  0.0000,  0.0000)
   7 K      7.845000   13.075000   10.000000    ( 0.0000,  0.0000,  0.0000)
   8 K     13.075000   13.075000   10.000000    ( 0.0000,  0.0000,  0.0000)
   9 K      0.000000    0.000000   12.615000    ( 0.0000,  0.0000,  0.0000)
  10 K      5.230000    0.000000   12.615000    ( 0.0000,  0.0000,  0.0000)
  11 K     10.460000    0.000000   12.615000    ( 0.0000,  0.0000,  0.0000)
  12 K      0.000000    5.230000   12.615000    ( 0.0000,  0.0000,  0.0000)
  13 K      5.230000    5.230000   12.615000    ( 0.0000,  0.0000,  0.0000)
  14 K     10.460000    5.230000   12.615000    ( 0.0000,  0.0000,  0.0000)
  15 K      0.000000   10.460000   12.615000    ( 0.0000,  0.0000,  0.0000)
  16 K      5.230000   10.460000   12.615000    ( 0.0000,  0.0000,  0.0000)
  17 K     10.460000   10.460000   12.615000    ( 0.0000,  0.0000,  0.0000)
  18 K      2.615000    2.615000   15.230000    ( 0.0000,  0.0000,  0.0000)
  19 K      7.845000    2.615000   15.230000    ( 0.0000,  0.0000,  0.0000)
  20 K     13.075000    2.615000   15.230000    ( 0.0000,  0.0000,  0.0000)
  21 K      2.615000    7.845000   15.230000    ( 0.0000,  0.0000,  0.0000)
  22 K      7.845000    7.845000   15.230000    ( 0.0000,  0.0000,  0.0000)
  23 K     13.075000    7.845000   15.230000    ( 0.0000,  0.0000,  0.0000)
  24 K      2.615000   13.075000   15.230000    ( 0.0000,  0.0000,  0.0000)
  25 K      7.845000   13.075000   15.230000    ( 0.0000,  0.0000,  0.0000)
  26 K     13.075000   13.075000   15.230000    ( 0.0000,  0.0000,  0.0000)
  27 K      0.000000    0.000000   17.845000    ( 0.0000,  0.0000,  0.0000)
  28 K      5.230000    0.000000   17.845000    ( 0.0000,  0.0000,  0.0000)
  29 K     10.460000    0.000000   17.845000    ( 0.0000,  0.0000,  0.0000)
  30 K      0.000000    5.230000   17.845000    ( 0.0000,  0.0000,  0.0000)
  31 K      5.230000    5.230000   17.845000    ( 0.0000,  0.0000,  0.0000)
  32 K     10.460000    5.230000   17.845000    ( 0.0000,  0.0000,  0.0000)
  33 K      0.000000   10.460000   17.845000    ( 0.0000,  0.0000,  0.0000)
  34 K      5.230000   10.460000   17.845000    ( 0.0000,  0.0000,  0.0000)
  35 K     10.460000   10.460000   17.845000    ( 0.0000,  0.0000,  0.0000)

Unit cell:
           periodic     x           y           z      points  spacing
  1. axis:    yes   15.690000    0.000000    0.000000   100     0.1569
  2. axis:    yes    0.000000   15.690000    0.000000   100     0.1569
  3. axis:    no     0.000000    0.000000   27.845000   176     0.1582

  Lengths:  15.690000  15.690000  27.845000
  Angles:   90.000000  90.000000  90.000000

Effective grid spacing dv^(1/3) = 0.1573

     iter     time        total  log10-change:
                         energy  eigst   dens
iter:   1 00:55:22 -1459.578925
iter:   2 01:05:50 -1461.779111  +0.21  -1.39
iter:   3 01:16:21 -1461.700876  -0.18  -1.38
iter:   4 01:26:38 -1459.712238  -0.37  -1.43
Writing to output.gpw (mode='')

iter:   5 01:37:29 -1459.976743  -0.64  -1.63
iter:   6 01:47:55 -1460.030294  -0.82  -1.64
iter:   7 01:58:15 -1460.488234  -1.08  -1.71
iter:   8 02:08:56 -1460.504375  -1.05  -1.71
iter:   9 02:19:15 -1460.540039c -1.46  -1.86
Writing to output.gpw (mode='')

iter:  10 02:29:34 -1460.566543c -1.44  -2.31
iter:  11 02:39:51 -1460.582535c -1.69  -2.42
iter:  12 02:50:12 -1460.612379c -1.80  -2.48
iter:  13 03:00:39 -1460.633109c -2.04  -2.53
iter:  14 03:10:59 -1460.645743c -2.05  -2.75
Writing to output.gpw (mode='')

iter:  15 03:21:22 -1460.652975c -2.28  -2.76
iter:  16 03:31:55 -1460.658177c -2.35  -2.75
iter:  17 03:42:44 -1460.662427c -2.63  -2.72
iter:  18 03:53:30 -1460.665341c -2.63  -2.67
iter:  19 04:04:00 -1460.669634c -2.85  -2.72
Writing to output.gpw (mode='')

iter:  20 04:14:33 -1460.671095c -2.93  -2.76
iter:  21 04:25:16 -1460.668965c -3.03  -2.73
iter:  22 04:36:13 -1460.671648c -3.16  -2.75
iter:  23 04:46:46 -1460.672116c -3.28  -2.74
iter:  24 04:57:41 -1460.674925c -3.43  -2.76
Writing to output.gpw (mode='')

iter:  25 05:08:19 -1460.674468c -3.48  -2.77
iter:  26 05:18:57 -1460.675222c -3.60  -2.78
iter:  27 05:29:52 -1460.677609c -3.71  -2.81
iter:  28 05:40:32 -1460.677923c -3.76  -2.84
iter:  29 05:51:20 -1460.681541c -3.82  -2.87
Writing to output.gpw (mode='')

iter:  30 06:02:13 -1460.682584c -3.67  -3.04
iter:  31 06:12:51 -1460.682928c -3.84  -3.17
iter:  32 06:23:20 -1460.682910c -3.99  -3.18
iter:  33 06:34:03 -1460.683949c -4.14  -3.14
iter:  34 06:44:34 -1460.685304c -4.13  -3.26
Writing to output.gpw (mode='')

iter:  35 06:55:13 -1460.685395c -4.08  -3.70
iter:  36 07:06:03 -1460.685451c -4.50  -3.65
iter:  37 07:16:14 -1460.685360c -4.52  -3.62
iter:  38 07:26:36 -1460.685430c -4.79  -3.54
iter:  39 07:36:56 -1460.685670c -4.80  -3.55
Writing to output.gpw (mode='')

iter:  40 07:47:28 -1460.685857c -4.95  -3.58
iter:  41 07:57:35 -1460.685919c -4.82  -3.70
iter:  42 08:08:01 -1460.685927c -5.18  -3.66
iter:  43 08:18:14 -1460.685404c -5.00  -3.71
iter:  44 08:28:44 -1460.685543c -5.30  -3.46
Writing to output.gpw (mode='')

iter:  45 08:39:18 -1460.685669c -5.54  -3.57
iter:  46 08:50:09 -1460.686033c -4.93  -3.66
iter:  47 09:00:49 -1460.686179c -5.11  -3.84
iter:  48 09:11:37 -1460.686186c -5.15  -3.89
iter:  49 09:21:59 -1460.686196c -5.62  -3.91
Writing to output.gpw (mode='')

iter:  50 09:32:37 -1460.686208c -5.60  -3.93
iter:  51 09:43:01 -1460.686204c -5.61  -4.04c
iter:  52 09:53:46 -1460.686179c -5.98  -4.05c
iter:  53 10:04:15 -1460.686159c -5.82  -4.12c
iter:  54 10:14:46 -1460.686165c -5.89  -4.19c
Writing to output.gpw (mode='')

iter:  55 10:25:25 -1460.686174c -5.97  -4.26c
iter:  56 10:36:01 -1460.686190c -6.21  -4.26c
iter:  57 10:46:40 -1460.686204c -6.13  -4.29c
iter:  58 10:57:01 -1460.686233c -6.28  -4.33c
iter:  59 11:07:29 -1460.686240c -6.29  -4.44c
Writing to output.gpw (mode='')

iter:  60 11:17:41 -1460.686253c -6.63  -4.51c
iter:  61 11:28:09 -1460.686243c -6.53  -4.54c
iter:  62 11:38:37 -1460.686244c -6.92  -4.58c
iter:  63 11:48:58 -1460.686245c -6.75  -4.65c
iter:  64 11:59:39 -1460.686241c -7.04  -4.70c
Writing to output.gpw (mode='')

iter:  65 12:10:07 -1460.686222c -7.00  -4.77c
iter:  66 12:20:31 -1460.686223c -6.95  -5.00c
iter:  67 12:30:45 -1460.686224c -7.34  -5.01c
iter:  68 12:41:05 -1460.686225c -7.25  -5.01c
iter:  69 12:51:22 -1460.686228c -7.54c -5.02c

Converged after 69 iterations.

Dipole moment: (-24.064622, -24.064622, -0.000096) |e|*Ang

Energy contributions relative to reference atoms: (reference = -589761.115863)

Kinetic:       +186.453474
Potential:     -138.363654
External:        +0.000000
XC:            -1483.730328
Entropy (-ST):   -0.484773
Local:          -24.803333
--------------------------
Free energy:   -1460.928614
Extrapolated:  -1460.686228

Dipole-layer corrected work functions: 2.471333, 2.471404 eV

 Band  Eigenvalues  Occupancy
    0    -35.23046    2.00000
    1    -35.23041    2.00000
    2    -35.23035    2.00000
    3    -35.23035    2.00000
    4    -35.23030    2.00000
    5    -35.23030    2.00000
    6    -35.23025    2.00000
    7    -35.23025    2.00000
    8    -35.23024    2.00000
    9    -35.23019    2.00000
   10    -35.23019    2.00000
   11    -35.23018    2.00000
   12    -35.23015    2.00000
   13    -35.23014    2.00000
   14    -35.23009    2.00000
   15    -35.23008    2.00000
   16    -35.23004    2.00000
   17    -35.22997    2.00000
   18    -34.96736    2.00000
   19    -34.96678    2.00000
   20    -34.96678    2.00000
   21    -34.96632    2.00000
   22    -34.96584    2.00000
   23    -34.96583    2.00000
   24    -34.96560    2.00000
   25    -34.96560    2.00000
   26    -34.96527    2.00000
   27    -34.96501    2.00000
   28    -34.96488    2.00000
   29    -34.96488    2.00000
   30    -34.96485    2.00000
   31    -34.96485    2.00000
   32    -34.96436    2.00000
   33    -34.96410    2.00000
   34    -34.96410    2.00000
   35    -34.96371    2.00000
   36    -18.69738    2.00000
   37    -18.69717    2.00000
   38    -18.69716    2.00000
   39    -18.69698    2.00000
   40    -18.69688    2.00000
   41    -18.69687    2.00000
   42    -18.69680    2.00000
   43    -18.69679    2.00000
   44    -18.69670    2.00000
   45    -18.69670    2.00000
   46    -18.69662    2.00000
   47    -18.69637    2.00000
   48    -18.69608    2.00000
   49    -18.69608    2.00000
   50    -18.69597    2.00000
   51    -18.69597    2.00000
   52    -18.69527    2.00000
   53    -18.69521    2.00000
   54    -18.68694    2.00000
   55    -18.68693    2.00000
   56    -18.68687    2.00000
   57    -18.68686    2.00000
   58    -18.68651    2.00000
   59    -18.68650    2.00000
   60    -18.68645    2.00000
   61    -18.68643    2.00000
   62    -18.68619    2.00000
   63    -18.68610    2.00000
   64    -18.68599    2.00000
   65    -18.68596    2.00000
   66    -18.68243    2.00000
   67    -18.68242    2.00000
   68    -18.68236    2.00000
   69    -18.68235    2.00000
   70    -18.68204    2.00000
   71    -18.68189    2.00000
   72    -18.68184    2.00000
   73    -18.68178    2.00000
   74    -18.68143    2.00000
   75    -18.68142    2.00000
   76    -18.68135    2.00000
   77    -18.68134    2.00000
   78    -18.67793    2.00000
   79    -18.67787    2.00000
   80    -18.67782    2.00000
   81    -18.67781    2.00000
   82    -18.67733    2.00000
   83    -18.67732    2.00000
   84    -18.67725    2.00000
   85    -18.67724    2.00000
   86    -18.67675    2.00000
   87    -18.67674    2.00000
   88    -18.67669    2.00000
   89    -18.67668    2.00000
   90    -18.44694    2.00000
   91    -18.44675    2.00000
   92    -18.44674    2.00000
   93    -18.44667    2.00000
   94    -18.44666    2.00000
   95    -18.44648    2.00000
   96    -18.44648    2.00000
   97    -18.44592    2.00000
   98    -18.44551    2.00000
   99    -18.44513    2.00000
  100    -18.44511    2.00000
  101    -18.44482    2.00000
  102    -18.44481    2.00000
  103    -18.44408    2.00000
  104    -18.44132    2.00000
  105    -18.44132    2.00000
  106    -18.44005    2.00000
  107    -18.43531    2.00000
  108    -18.43436    2.00000
  109    -18.43413    2.00000
  110    -18.43112    2.00000
  111    -18.43079    2.00000
  112    -18.43078    2.00000
  113    -18.43021    2.00000
  114    -18.43020    2.00000
  115    -18.42838    2.00000
  116    -18.42501    2.00000
  117    -18.42501    2.00000
  118    -18.42431    2.00000
  119    -18.42431    2.00000
  120    -18.41924    2.00000
  121    -18.41884    2.00000
  122    -18.41883    2.00000
  123    -18.41702    2.00000
  124    -18.41400    2.00000
  125    -18.41400    2.00000
  126    -18.41390    2.00000
  127    -18.41389    2.00000
  128    -18.41282    2.00000
  129    -18.41280    2.00000
  130    -18.41269    2.00000
  131    -18.41268    2.00000
  132    -18.41236    2.00000
  133    -18.41221    2.00000
  134    -18.41195    2.00000
  135    -18.41174    2.00000
  136    -18.41173    2.00000
  137    -18.41172    2.00000
  138    -18.41172    2.00000
  139    -18.41068    2.00000
  140    -18.41065    2.00000
  141    -18.41057    2.00000
  142    -18.41005    2.00000
  143    -18.40876    2.00000
  144     -4.36195    2.00000
  145     -4.02253    2.00000
  146     -4.02252    2.00000
  147     -3.69231    2.00000
  148     -3.68568    2.00000
  149     -3.37363    2.00000
  150     -3.37362    2.00000
  151     -3.36115    2.00000
  152     -3.36115    2.00000
  153     -3.06233    1.99999
  154     -3.06233    1.99999
  155     -3.04141    1.99998
  156     -2.75070    1.99253
  157     -2.74727    1.99200
  158     -2.74726    1.99200
  159     -2.47465    1.03279
  160     -2.47153    1.00160
  161     -2.47153    1.00159
  162     -2.44992    0.78876
  163     -2.44992    0.78872
  164     -2.44005    0.69669
  165     -2.44005    0.69669
  166     -2.18600    0.00662
  167     -2.18600    0.00662
  168     -2.14963    0.00320
  169     -1.97732    0.00010
  170     -1.97732    0.00010
  171     -1.88405    0.00002
  172     -1.85235    0.00001
  173     -1.68308    0.00000
  174     -1.63175    0.00000
  175     -1.63174    0.00000
  176     -1.53087    0.00000
  177     -1.53072    0.00000
  178     -1.21300    0.00000
  179     -1.03544    0.00000

Fermi level: -2.47137

Gap: 0.022 eV
Transition (v -> c):
  (s=0, k=0, n=161, [0.25, 0.25, 0.00]) -> (s=0, k=0, n=162, [0.25, 0.25, 0.00])
Writing to output.gpw (mode='')


Forces in eV/Ang:
  0 K     0.00475    0.00475   -0.04555
  1 K     0.00000   -0.00910   -0.05413
  2 K    -0.00475    0.00475   -0.04555
  3 K    -0.00910    0.00000   -0.05413
  4 K     0.00000    0.00000   -0.05190
  5 K     0.00910    0.00000   -0.05413
  6 K     0.00475   -0.00475   -0.04555
  7 K     0.00000    0.00910   -0.05413
  8 K    -0.00475   -0.00475   -0.04555
  9 K    -0.00000    0.00000    0.01426
 10 K     0.00782    0.00000    0.01500
 11 K    -0.00782    0.00000    0.01500
 12 K     0.00000    0.00782    0.01500
 13 K    -0.00477   -0.00477    0.01236
 14 K     0.00477   -0.00477    0.01236
 15 K     0.00000   -0.00782    0.01500
 16 K    -0.00477    0.00477    0.01236
 17 K     0.00477    0.00477    0.01236
 18 K     0.00464    0.00464   -0.01232
 19 K     0.00000   -0.00796   -0.01489
 20 K    -0.00464    0.00464   -0.01232
 21 K    -0.00796    0.00000   -0.01489
 22 K     0.00000    0.00000   -0.01407
 23 K     0.00796    0.00000   -0.01489
 24 K     0.00464   -0.00464   -0.01232
 25 K     0.00000    0.00796   -0.01489
 26 K    -0.00464   -0.00464   -0.01232
 27 K     0.00000    0.00000    0.05188
 28 K     0.00904    0.00000    0.05417
 29 K    -0.00904    0.00000    0.05417
 30 K     0.00000    0.00904    0.05417
 31 K    -0.00481   -0.00481    0.04564
 32 K     0.00481   -0.00481    0.04564
 33 K     0.00000   -0.00904    0.05417
 34 K    -0.00481    0.00481    0.04564
 35 K     0.00481    0.00481    0.04564

System changes: positions 

Initializing position-dependent things.

Density initialized from wave functions
           .--------------------------------------.  
          /|                                      |  
         / |                                      |  
        /  |                                      |  
       /   |                                      |  
      /    |                                      |  
     /     |                                      |  
    /      |                                      |  
   /       |                                      |  
  /        |                                      |  
 *         |                                      |  
 |         |                                      |  
 |         |                                      |  
 |         |                                      |  
 |         |                                      |  
 |         |                                      |  
 |      K  |         K            K               |  
 |         |    K            K            K       |  
 |         |                                      |  
 |  K      |     K            K                   |  
 |         |K            K             K          |  
 |         |                                      |  
 K      K  |  K      K     K      K               |  
 |         |    K            K            K       |  
 |       K |          K            K              |  
 |  K      |     K            K                   |  
 |         |                                      |  
 |         |K            K             K          |  
 |         |                                      |  
 K         |  K            K                      |  
 |       K |          K            K              |  
 |         |                                      |  
 |         |                                      |  
 |         |                                      |  
 |         .--------------------------------------.  
 |        /                                      /   
 |       /                                      /    
 |      /                                      /     
 |     /                                      /      
 |    /                                      /       
 |   /                                      /        
 |  /                                      /         
 | /                                      /          
 |/                                      /           
 *--------------------------------------*            

Positions:
   0 K      2.615000    2.615000   10.000000    ( 0.0000,  0.0000,  0.0000)
   1 K      7.845000    2.615000   10.000000    ( 0.0000,  0.0000,  0.0000)
   2 K     13.075000    2.615000   10.000000    ( 0.0000,  0.0000,  0.0000)
   3 K      2.615000    7.845000   10.000000    ( 0.0000,  0.0000,  0.0000)
   4 K      7.845000    7.845000   10.000000    ( 0.0000,  0.0000,  0.0000)
   5 K     13.075000    7.845000   10.000000    ( 0.0000,  0.0000,  0.0000)
   6 K      2.615000   13.075000   10.000000    ( 0.0000,  0.0000,  0.0000)
   7 K      7.845000   13.075000   10.000000    ( 0.0000,  0.0000,  0.0000)
   8 K     13.075000   13.075000   10.000000    ( 0.0000,  0.0000,  0.0000)
   9 K      0.000000    0.000000   12.615000    ( 0.0000,  0.0000,  0.0000)
  10 K      5.230000    0.000000   12.615000    ( 0.0000,  0.0000,  0.0000)
  11 K     10.460000    0.000000   12.615000    ( 0.0000,  0.0000,  0.0000)
  12 K      0.000000    5.230000   12.615000    ( 0.0000,  0.0000,  0.0000)
  13 K      5.230000    5.230000   12.615000    ( 0.0000,  0.0000,  0.0000)
  14 K     10.460000    5.230000   12.615000    ( 0.0000,  0.0000,  0.0000)
  15 K      0.000000   10.460000   12.615000    ( 0.0000,  0.0000,  0.0000)
  16 K      5.230000   10.460000   12.615000    ( 0.0000,  0.0000,  0.0000)
  17 K     10.460000   10.460000   12.615000    ( 0.0000,  0.0000,  0.0000)
  18 K      2.615066    2.615066   15.229824    ( 0.0000,  0.0000,  0.0000)
  19 K      7.845000    2.614886   15.229787    ( 0.0000,  0.0000,  0.0000)
  20 K     13.074934    2.615066   15.229824    ( 0.0000,  0.0000,  0.0000)
  21 K      2.614886    7.845000   15.229787    ( 0.0000,  0.0000,  0.0000)
  22 K      7.845000    7.845000   15.229799    ( 0.0000,  0.0000,  0.0000)
  23 K     13.075114    7.845000   15.229787    ( 0.0000,  0.0000,  0.0000)
  24 K      2.615066   13.074934   15.229824    ( 0.0000,  0.0000,  0.0000)
  25 K      7.845000   13.075114   15.229787    ( 0.0000,  0.0000,  0.0000)
  26 K     13.074934   13.074934   15.229824    ( 0.0000,  0.0000,  0.0000)
  27 K      0.000000    0.000000   17.845741    ( 0.0000,  0.0000,  0.0000)
  28 K      5.230129    0.000000   17.845774    ( 0.0000,  0.0000,  0.0000)
  29 K     10.459871    0.000000   17.845774    ( 0.0000,  0.0000,  0.0000)
  30 K      0.000000    5.230129   17.845774    ( 0.0000,  0.0000,  0.0000)
  31 K      5.229931    5.229931   17.845652    ( 0.0000,  0.0000,  0.0000)
  32 K     10.460069    5.229931   17.845652    ( 0.0000,  0.0000,  0.0000)
  33 K      0.000000   10.459871   17.845774    ( 0.0000,  0.0000,  0.0000)
  34 K      5.229931   10.460069   17.845652    ( 0.0000,  0.0000,  0.0000)
  35 K     10.460069   10.460069   17.845652    ( 0.0000,  0.0000,  0.0000)

Unit cell:
           periodic     x           y           z      points  spacing
  1. axis:    yes   15.690000    0.000000    0.000000   100     0.1569
  2. axis:    yes    0.000000   15.690000    0.000000   100     0.1569
  3. axis:    no     0.000000    0.000000   27.845000   176     0.1582

  Lengths:  15.690000  15.690000  27.845000
  Angles:   90.000000  90.000000  90.000000

Effective grid spacing dv^(1/3) = 0.1573

     iter     time        total  log10-change:
                         energy  eigst   dens
iter:   1 13:02:18 -1460.686600  -5.25
iter:   2 13:12:39 -1460.686592  -6.13  -4.08c
iter:   3 13:23:07 -1460.686586c -6.84  -4.27c
iter:   4 13:33:40 -1460.686583c -7.21  -4.72c
Writing to output.gpw (mode='')

iter:   5 13:44:00 -1460.686570c -6.90  -4.65c
iter:   6 13:54:25 -1460.686576c -7.25  -4.69c
iter:   7 14:05:10 -1460.686581c -7.77c -4.94c

Converged after 7 iterations.

Dipole moment: (-24.064698, -24.064698, 0.000331) |e|*Ang

Energy contributions relative to reference atoms: (reference = -589761.115863)

Kinetic:       +186.297167
Potential:     -138.228075
External:        +0.000000
XC:            -1483.716958
Entropy (-ST):   -0.484789
Local:          -24.796321
--------------------------
Free energy:   -1460.928976
Extrapolated:  -1460.686581

Dipole-layer corrected work functions: 2.471682, 2.471439 eV

 Band  Eigenvalues  Occupancy
    0    -35.23080    2.00000
    1    -35.23070    2.00000
    2    -35.23069    2.00000
    3    -35.23068    2.00000
    4    -35.23060    2.00000
    5    -35.23060    2.00000
    6    -35.23058    2.00000
    7    -35.23058    2.00000
    8    -35.23057    2.00000
    9    -35.23049    2.00000
   10    -35.23048    2.00000
   11    -35.23047    2.00000
   12    -35.23046    2.00000
   13    -35.23045    2.00000
   14    -35.23039    2.00000
   15    -35.23035    2.00000
   16    -35.23033    2.00000
   17    -35.23018    2.00000
   18    -34.96765    2.00000
   19    -34.96708    2.00000
   20    -34.96706    2.00000
   21    -34.96660    2.00000
   22    -34.96613    2.00000
   23    -34.96611    2.00000
   24    -34.96590    2.00000
   25    -34.96588    2.00000
   26    -34.96557    2.00000
   27    -34.96530    2.00000
   28    -34.96519    2.00000
   29    -34.96517    2.00000
   30    -34.96513    2.00000
   31    -34.96509    2.00000
   32    -34.96465    2.00000
   33    -34.96439    2.00000
   34    -34.96437    2.00000
   35    -34.96398    2.00000
   36    -18.69767    2.00000
   37    -18.69746    2.00000
   38    -18.69745    2.00000
   39    -18.69726    2.00000
   40    -18.69719    2.00000
   41    -18.69717    2.00000
   42    -18.69708    2.00000
   43    -18.69707    2.00000
   44    -18.69698    2.00000
   45    -18.69696    2.00000
   46    -18.69692    2.00000
   47    -18.69664    2.00000
   48    -18.69639    2.00000
   49    -18.69638    2.00000
   50    -18.69624    2.00000
   51    -18.69623    2.00000
   52    -18.69559    2.00000
   53    -18.69546    2.00000
   54    -18.68724    2.00000
   55    -18.68723    2.00000
   56    -18.68713    2.00000
   57    -18.68712    2.00000
   58    -18.68682    2.00000
   59    -18.68680    2.00000
   60    -18.68670    2.00000
   61    -18.68670    2.00000
   62    -18.68648    2.00000
   63    -18.68640    2.00000
   64    -18.68626    2.00000
   65    -18.68623    2.00000
   66    -18.68274    2.00000
   67    -18.68273    2.00000
   68    -18.68263    2.00000
   69    -18.68262    2.00000
   70    -18.68233    2.00000
   71    -18.68216    2.00000
   72    -18.68215    2.00000
   73    -18.68204    2.00000
   74    -18.68173    2.00000
   75    -18.68172    2.00000
   76    -18.68161    2.00000
   77    -18.68160    2.00000
   78    -18.67823    2.00000
   79    -18.67818    2.00000
   80    -18.67809    2.00000
   81    -18.67807    2.00000
   82    -18.67763    2.00000
   83    -18.67762    2.00000
   84    -18.67751    2.00000
   85    -18.67750    2.00000
   86    -18.67706    2.00000
   87    -18.67705    2.00000
   88    -18.67694    2.00000
   89    -18.67693    2.00000
   90    -18.44722    2.00000
   91    -18.44703    2.00000
   92    -18.44702    2.00000
   93    -18.44694    2.00000
   94    -18.44693    2.00000
   95    -18.44676    2.00000
   96    -18.44675    2.00000
   97    -18.44620    2.00000
   98    -18.44579    2.00000
   99    -18.44540    2.00000
  100    -18.44539    2.00000
  101    -18.44508    2.00000
  102    -18.44507    2.00000
  103    -18.44434    2.00000
  104    -18.44160    2.00000
  105    -18.44160    2.00000
  106    -18.44033    2.00000
  107    -18.43558    2.00000
  108    -18.43464    2.00000
  109    -18.43441    2.00000
  110    -18.43138    2.00000
  111    -18.43107    2.00000
  112    -18.43106    2.00000
  113    -18.43048    2.00000
  114    -18.43048    2.00000
  115    -18.42865    2.00000
  116    -18.42529    2.00000
  117    -18.42528    2.00000
  118    -18.42458    2.00000
  119    -18.42458    2.00000
  120    -18.41951    2.00000
  121    -18.41911    2.00000
  122    -18.41911    2.00000
  123    -18.41728    2.00000
  124    -18.41427    2.00000
  125    -18.41427    2.00000
  126    -18.41416    2.00000
  127    -18.41416    2.00000
  128    -18.41308    2.00000
  129    -18.41307    2.00000
  130    -18.41295    2.00000
  131    -18.41295    2.00000
  132    -18.41263    2.00000
  133    -18.41248    2.00000
  134    -18.41222    2.00000
  135    -18.41200    2.00000
  136    -18.41200    2.00000
  137    -18.41198    2.00000
  138    -18.41198    2.00000
  139    -18.41094    2.00000
  140    -18.41094    2.00000
  141    -18.41084    2.00000
  142    -18.41032    2.00000
  143    -18.40903    2.00000
  144     -4.36211    2.00000
  145     -4.02270    2.00000
  146     -4.02266    2.00000
  147     -3.69247    2.00000
  148     -3.68584    2.00000
  149     -3.37381    2.00000
  150     -3.37376    2.00000
  151     -3.36133    2.00000
  152     -3.36129    2.00000
  153     -3.06249    1.99999
  154     -3.06248    1.99999
  155     -3.04158    1.99998
  156     -2.75098    1.99255
  157     -2.74745    1.99200
  158     -2.74741    1.99200
  159     -2.47481    1.03248
  160     -2.47169    1.00132
  161     -2.47168    1.00117
  162     -2.45021    0.78964
  163     -2.45017    0.78926
  164     -2.44023    0.69656
  165     -2.44021    0.69641
  166     -2.18618    0.00662
  167     -2.18614    0.00661
  168     -2.14989    0.00321
  169     -1.97751    0.00010
  170     -1.97750    0.00010
  171     -1.88423    0.00002
  172     -1.85261    0.00001
  173     -1.68325    0.00000
  174     -1.63196    0.00000
  175     -1.63195    0.00000
  176     -1.53735    0.00000
  177     -1.53707    0.00000
  178     -1.26036    0.00000
  179     -1.05494    0.00000

Fermi level: -2.47156

Gap: 0.021 eV
Transition (v -> c):
  (s=0, k=0, n=161, [0.25, 0.25, 0.00]) -> (s=0, k=0, n=162, [0.25, 0.25, 0.00])
Writing to output.gpw (mode='')


Forces in eV/Ang:
  0 K     0.00484    0.00484   -0.04592
  1 K     0.00000   -0.00893   -0.05449
  2 K    -0.00484    0.00484   -0.04592
  3 K    -0.00893    0.00000   -0.05449
  4 K     0.00000    0.00000   -0.05204
  5 K     0.00893    0.00000   -0.05449
  6 K     0.00484   -0.00484   -0.04592
  7 K     0.00000    0.00893   -0.05449
  8 K    -0.00484   -0.00484   -0.04592
  9 K     0.00000    0.00000    0.01521
 10 K     0.00785    0.00000    0.01584
 11 K    -0.00785    0.00000    0.01584
 12 K     0.00000    0.00785    0.01584
 13 K    -0.00452   -0.00452    0.01330
 14 K     0.00452   -0.00452    0.01330
 15 K     0.00000   -0.00785    0.01584
 16 K    -0.00452    0.00452    0.01330
 17 K     0.00452    0.00452    0.01330
 18 K     0.00462    0.00462   -0.01210
 19 K     0.00000   -0.00759   -0.01497
 20 K    -0.00462    0.00462   -0.01210
 21 K    -0.00759    0.00000   -0.01497
 22 K     0.00000    0.00000   -0.01402
 23 K     0.00759    0.00000   -0.01497
 24 K     0.00462   -0.00462   -0.01210
 25 K     0.00000    0.00759   -0.01497
 26 K    -0.00462   -0.00462   -0.01210
 27 K     0.00000    0.00000    0.05122
 28 K     0.00884    0.00000    0.05383
 29 K    -0.00884    0.00000    0.05383
 30 K     0.00000    0.00884    0.05383
 31 K    -0.00453   -0.00453    0.04481
 32 K     0.00453   -0.00453    0.04481
 33 K     0.00000   -0.00884    0.05383
 34 K    -0.00453    0.00453    0.04481
 35 K     0.00453    0.00453    0.04481

System changes: positions 

Initializing position-dependent things.

Density initialized from wave functions
           .--------------------------------------.  
          /|                                      |  
         / |                                      |  
        /  |                                      |  
       /   |                                      |  
      /    |                                      |  
     /     |                                      |  
    /      |                                      |  
   /       |                                      |  
  /        |                                      |  
 *         |                                      |  
 |         |                                      |  
 |         |                                      |  
 |         |                                      |  
 |         |                                      |  
 |         |                                      |  
 |      K  |         K            K               |  
 |         |    K            K            K       |  
 |         |                                      |  
 |  K      |     K            K                   |  
 |         |K            K             K          |  
 |         |                                      |  
 K      K  |  K      K     K      K               |  
 |         |    K            K            K       |  
 |       K |          K            K              |  
 |  K      |     K            K                   |  
 |         |                                      |  
 |         |K            K             K          |  
 |         |                                      |  
 K         |  K            K                      |  
 |       K |          K            K              |  
 |         |                                      |  
 |         |                                      |  
 |         |                                      |  
 |         .--------------------------------------.  
 |        /                                      /   
 |       /                                      /    
 |      /                                      /     
 |     /                                      /      
 |    /                                      /       
 |   /                                      /        
 |  /                                      /         
 | /                                      /          
 |/                                      /           
 *--------------------------------------*            

Positions:
   0 K      2.615000    2.615000   10.000000    ( 0.0000,  0.0000,  0.0000)
   1 K      7.845000    2.615000   10.000000    ( 0.0000,  0.0000,  0.0000)
   2 K     13.075000    2.615000   10.000000    ( 0.0000,  0.0000,  0.0000)
   3 K      2.615000    7.845000   10.000000    ( 0.0000,  0.0000,  0.0000)
   4 K      7.845000    7.845000   10.000000    ( 0.0000,  0.0000,  0.0000)
   5 K     13.075000    7.845000   10.000000    ( 0.0000,  0.0000,  0.0000)
   6 K      2.615000   13.075000   10.000000    ( 0.0000,  0.0000,  0.0000)
   7 K      7.845000   13.075000   10.000000    ( 0.0000,  0.0000,  0.0000)
   8 K     13.075000   13.075000   10.000000    ( 0.0000,  0.0000,  0.0000)
   9 K      0.000000    0.000000   12.615000    ( 0.0000,  0.0000,  0.0000)
  10 K      5.230000    0.000000   12.615000    ( 0.0000,  0.0000,  0.0000)
  11 K     10.460000    0.000000   12.615000    ( 0.0000,  0.0000,  0.0000)
  12 K      0.000000    5.230000   12.615000    ( 0.0000,  0.0000,  0.0000)
  13 K      5.230000    5.230000   12.615000    ( 0.0000,  0.0000,  0.0000)
  14 K     10.460000    5.230000   12.615000    ( 0.0000,  0.0000,  0.0000)
  15 K      0.000000   10.460000   12.615000    ( 0.0000,  0.0000,  0.0000)
  16 K      5.230000   10.460000   12.615000    ( 0.0000,  0.0000,  0.0000)
  17 K     10.460000   10.460000   12.615000    ( 0.0000,  0.0000,  0.0000)
  18 K      2.615914    2.615914   15.227606    ( 0.0000,  0.0000,  0.0000)
  19 K      7.845000    2.613495   15.227044    ( 0.0000,  0.0000,  0.0000)
  20 K     13.074086    2.615914   15.227606    ( 0.0000,  0.0000,  0.0000)
  21 K      2.613495    7.845000   15.227044    ( 0.0000,  0.0000,  0.0000)
  22 K      7.845000    7.845000   15.227229    ( 0.0000,  0.0000,  0.0000)
  23 K     13.076505    7.845000   15.227044    ( 0.0000,  0.0000,  0.0000)
  24 K      2.615914   13.074086   15.227606    ( 0.0000,  0.0000,  0.0000)
  25 K      7.845000   13.076505   15.227044    ( 0.0000,  0.0000,  0.0000)
  26 K     13.074086   13.074086   15.227606    ( 0.0000,  0.0000,  0.0000)
  27 K      0.000000   -0.000000   17.855131    ( 0.0000,  0.0000,  0.0000)
  28 K      5.231750    0.000000   17.855642    ( 0.0000,  0.0000,  0.0000)
  29 K     10.458250    0.000000   17.855642    ( 0.0000,  0.0000,  0.0000)
  30 K     -0.000000    5.231750   17.855642    ( 0.0000,  0.0000,  0.0000)
  31 K      5.229100    5.229100   17.853867    ( 0.0000,  0.0000,  0.0000)
  32 K     10.460900    5.229100   17.853867    ( 0.0000,  0.0000,  0.0000)
  33 K     -0.000000   10.458250   17.855642    ( 0.0000,  0.0000,  0.0000)
  34 K      5.229100   10.460900   17.853867    ( 0.0000,  0.0000,  0.0000)
  35 K     10.460900   10.460900   17.853867    ( 0.0000,  0.0000,  0.0000)

Unit cell:
           periodic     x           y           z      points  spacing
  1. axis:    yes   15.690000    0.000000    0.000000   100     0.1569
  2. axis:    yes    0.000000   15.690000    0.000000   100     0.1569
  3. axis:    no     0.000000    0.000000   27.845000   176     0.1582

  Lengths:  15.690000  15.690000  27.845000
  Angles:   90.000000  90.000000  90.000000

Effective grid spacing dv^(1/3) = 0.1573

     iter     time        total  log10-change:
                         energy  eigst   dens
iter:   1 14:16:22 -1460.691008  -3.08
iter:   2 14:26:38 -1460.690771  -4.03  -3.18
iter:   3 14:37:02 -1460.690627c -4.72  -3.34
iter:   4 14:47:20 -1460.690705c -5.16  -3.59
Writing to output.gpw (mode='')

iter:   5 14:57:52 -1460.690974c -5.11  -3.71
iter:   6 15:08:28 -1460.690831c -5.21  -3.79
iter:   7 15:18:55 -1460.690672c -5.92  -3.94
iter:   8 15:29:31 -1460.690708c -5.84  -4.14c
iter:   9 15:40:00 -1460.690707c -6.15  -4.15c
Writing to output.gpw (mode='')

iter:  10 15:50:02 -1460.690717c -6.26  -4.35c
iter:  11 16:00:14 -1460.690727c -6.38  -4.48c
iter:  12 16:10:32 -1460.690716c -6.61  -4.59c
iter:  13 16:20:49 -1460.690720c -6.55  -4.59c
iter:  14 16:31:10 -1460.690729c -6.91  -4.61c
Writing to output.gpw (mode='')

iter:  15 16:41:22 -1460.690730c -6.97  -4.75c
iter:  16 16:51:38 -1460.690728c -6.87  -4.81c
iter:  17 17:01:56 -1460.690725c -7.18  -4.85c
iter:  18 17:12:28 -1460.690730c -7.26  -4.88c
iter:  19 17:22:53 -1460.690731c -7.28  -4.92c
Writing to output.gpw (mode='')

iter:  20 17:33:21 -1460.690720c -7.54c -4.94c

Converged after 20 iterations.

Dipole moment: (-24.064811, -24.064811, 0.001305) |e|*Ang

Energy contributions relative to reference atoms: (reference = -589761.115863)

Kinetic:       +186.204914
Potential:     -138.185920
External:        +0.000000
XC:            -1483.671234
Entropy (-ST):   -0.485041
Local:          -24.795958
--------------------------
Free energy:   -1460.933241
Extrapolated:  -1460.690720

Dipole-layer corrected work functions: 2.472275, 2.471316 eV

 Band  Eigenvalues  Occupancy
    0    -35.23195    2.00000
    1    -35.23169    2.00000
    2    -35.23158    2.00000
    3    -35.23157    2.00000
    4    -35.23147    2.00000
    5    -35.23138    2.00000
    6    -35.23135    2.00000
    7    -35.23127    2.00000
    8    -35.23123    2.00000
    9    -35.23078    2.00000
   10    -35.23067    2.00000
   11    -35.23066    2.00000
   12    -35.23056    2.00000
   13    -35.23056    2.00000
   14    -35.23053    2.00000
   15    -35.23045    2.00000
   16    -35.23042    2.00000
   17    -35.23023    2.00000
   18    -34.96846    2.00000
   19    -34.96790    2.00000
   20    -34.96784    2.00000
   21    -34.96742    2.00000
   22    -34.96695    2.00000
   23    -34.96691    2.00000
   24    -34.96673    2.00000
   25    -34.96662    2.00000
   26    -34.96636    2.00000
   27    -34.96611    2.00000
   28    -34.96601    2.00000
   29    -34.96598    2.00000
   30    -34.96595    2.00000
   31    -34.96579    2.00000
   32    -34.96544    2.00000
   33    -34.96519    2.00000
   34    -34.96511    2.00000
   35    -34.96475    2.00000
   36    -18.69850    2.00000
   37    -18.69831    2.00000
   38    -18.69814    2.00000
   39    -18.69805    2.00000
   40    -18.69788    2.00000
   41    -18.69766    2.00000
   42    -18.69747    2.00000
   43    -18.69727    2.00000
   44    -18.69727    2.00000
   45    -18.69725    2.00000
   46    -18.69712    2.00000
   47    -18.69710    2.00000
   48    -18.69706    2.00000
   49    -18.69679    2.00000
   50    -18.69642    2.00000
   51    -18.69635    2.00000
   52    -18.69631    2.00000
   53    -18.69554    2.00000
   54    -18.68807    2.00000
   55    -18.68804    2.00000
   56    -18.68764    2.00000
   57    -18.68760    2.00000
   58    -18.68724    2.00000
   59    -18.68724    2.00000
   60    -18.68723    2.00000
   61    -18.68719    2.00000
   62    -18.68681    2.00000
   63    -18.68680    2.00000
   64    -18.68641    2.00000
   65    -18.68636    2.00000
   66    -18.68357    2.00000
   67    -18.68353    2.00000
   68    -18.68312    2.00000
   69    -18.68298    2.00000
   70    -18.68273    2.00000
   71    -18.68272    2.00000
   72    -18.68256    2.00000
   73    -18.68254    2.00000
   74    -18.68229    2.00000
   75    -18.68214    2.00000
   76    -18.68171    2.00000
   77    -18.68171    2.00000
   78    -18.67903    2.00000
   79    -18.67900    2.00000
   80    -18.67847    2.00000
   81    -18.67844    2.00000
   82    -18.67820    2.00000
   83    -18.67817    2.00000
   84    -18.67790    2.00000
   85    -18.67787    2.00000
   86    -18.67762    2.00000
   87    -18.67761    2.00000
   88    -18.67704    2.00000
   89    -18.67704    2.00000
   90    -18.44808    2.00000
   91    -18.44785    2.00000
   92    -18.44785    2.00000
   93    -18.44778    2.00000
   94    -18.44775    2.00000
   95    -18.44760    2.00000
   96    -18.44755    2.00000
   97    -18.44707    2.00000
   98    -18.44659    2.00000
   99    -18.44627    2.00000
  100    -18.44621    2.00000
  101    -18.44589    2.00000
  102    -18.44585    2.00000
  103    -18.44510    2.00000
  104    -18.44247    2.00000
  105    -18.44241    2.00000
  106    -18.44119    2.00000
  107    -18.43638    2.00000
  108    -18.43547    2.00000
  109    -18.43526    2.00000
  110    -18.43214    2.00000
  111    -18.43191    2.00000
  112    -18.43187    2.00000
  113    -18.43128    2.00000
  114    -18.43125    2.00000
  115    -18.42939    2.00000
  116    -18.42610    2.00000
  117    -18.42607    2.00000
  118    -18.42537    2.00000
  119    -18.42533    2.00000
  120    -18.42027    2.00000
  121    -18.41991    2.00000
  122    -18.41985    2.00000
  123    -18.41801    2.00000
  124    -18.41508    2.00000
  125    -18.41499    2.00000
  126    -18.41491    2.00000
  127    -18.41485    2.00000
  128    -18.41385    2.00000
  129    -18.41379    2.00000
  130    -18.41368    2.00000
  131    -18.41366    2.00000
  132    -18.41337    2.00000
  133    -18.41322    2.00000
  134    -18.41295    2.00000
  135    -18.41277    2.00000
  136    -18.41274    2.00000
  137    -18.41268    2.00000
  138    -18.41267    2.00000
  139    -18.41174    2.00000
  140    -18.41162    2.00000
  141    -18.41158    2.00000
  142    -18.41106    2.00000
  143    -18.40977    2.00000
  144     -4.36175    2.00000
  145     -4.02253    2.00000
  146     -4.02217    2.00000
  147     -3.69216    2.00000
  148     -3.68563    2.00000
  149     -3.37365    2.00000
  150     -3.37332    2.00000
  151     -3.36134    2.00000
  152     -3.36100    2.00000
  153     -3.06233    1.99999
  154     -3.06205    1.99999
  155     -3.04148    1.99998
  156     -2.75252    1.99274
  157     -2.74750    1.99197
  158     -2.74718    1.99192
  159     -2.47451    1.02718
  160     -2.47146    0.99665
  161     -2.47127    0.99475
  162     -2.45174    0.80209
  163     -2.45136    0.79842
  164     -2.44027    0.69481
  165     -2.44006    0.69292
  166     -2.18600    0.00656
  167     -2.18567    0.00652
  168     -2.15111    0.00327
  169     -1.97799    0.00010
  170     -1.97793    0.00010
  171     -1.88421    0.00002
  172     -1.85423    0.00001
  173     -1.68294    0.00000
  174     -1.63243    0.00000
  175     -1.63230    0.00000
  176     -1.55314    0.00000
  177     -1.55262    0.00000
  178     -1.34435    0.00000
  179     -1.29490    0.00000

Fermi level: -2.47180

Gap: 0.003 eV
Transition (v -> c):
  (s=0, k=0, n=159, [0.25, 0.25, 0.00]) -> (s=0, k=0, n=160, [0.25, 0.25, 0.00])

Forces in eV/Ang:
  0 K     0.00486    0.00486   -0.04554
  1 K     0.00000   -0.00900   -0.05407
  2 K    -0.00486    0.00486   -0.04554
  3 K    -0.00900    0.00000   -0.05407
  4 K     0.00000    0.00000   -0.05164
  5 K     0.00900    0.00000   -0.05407
  6 K     0.00486   -0.00486   -0.04554
  7 K     0.00000    0.00900   -0.05407
  8 K    -0.00486   -0.00486   -0.04554
  9 K     0.00000    0.00000    0.01468
 10 K     0.00774    0.00000    0.01488
 11 K    -0.00774    0.00000    0.01488
 12 K     0.00000    0.00774    0.01488
 13 K    -0.00446   -0.00446    0.01249
 14 K     0.00446   -0.00446    0.01249
 15 K     0.00000   -0.00774    0.01488
 16 K    -0.00446    0.00446    0.01249
 17 K     0.00446    0.00446    0.01249
 18 K     0.00423    0.00423   -0.00801
 19 K     0.00000   -0.00771   -0.01295
 20 K    -0.00423    0.00423   -0.00801
 21 K    -0.00771    0.00000   -0.01295
 22 K     0.00000    0.00000   -0.01128
 23 K     0.00771    0.00000   -0.01295
 24 K     0.00423   -0.00423   -0.00801
 25 K     0.00000    0.00771   -0.01295
 26 K    -0.00423   -0.00423   -0.00801
 27 K     0.00000    0.00000    0.04550
 28 K     0.00379    0.00000    0.04838
 29 K    -0.00379    0.00000    0.04838
 30 K     0.00000    0.00379    0.04838
 31 K    -0.00302   -0.00302    0.03768
 32 K     0.00302   -0.00302    0.03768
 33 K     0.00000   -0.00379    0.04838
 34 K    -0.00302    0.00302    0.03768
 35 K     0.00302    0.00302    0.03768

Timing:                                      incl.     excl.
-------------------------------------------------------------------
Density initialized from wave functions:     6.775     1.398   0.0% |
 Symmetrize density:                         5.377     5.377   0.0% |
Forces:                                     15.422    15.422   0.0% |
Hamiltonian:                               635.309     0.014   0.0% |
 Atomic:                                     0.900     0.145   0.0% |
  XC Correction:                             0.755     0.755   0.0% |
 Calculate atomic Hamiltonians:              0.508     0.508   0.0% |
 Communicate:                                1.417     1.417   0.0% |
 Hartree integrate/restrict:                 0.509     0.509   0.0% |
 Initialize Hamiltonian:                     0.000     0.000   0.0% |
 Poisson:                                    6.208     2.385   0.0% |
  Communicate from 1D:                       0.632     0.632   0.0% |
  Communicate from 2D:                       1.001     1.001   0.0% |
  Communicate to 1D:                         0.497     0.497   0.0% |
  Communicate to 2D:                         0.732     0.732   0.0% |
  FFT 1D:                                    0.474     0.474   0.0% |
  FFT 2D:                                    0.487     0.487   0.0% |
 XC 3D grid:                               625.710    23.353   0.0% |
  VdW-DF integral:                         602.357     1.700   0.0% |
   Convolution:                             47.431    47.431   0.1% |
   FFT:                                      9.581     9.581   0.0% |
   gather:                                 421.206   421.206   0.7% |
   hmm1:                                     8.689     8.689   0.0% |
   hmm2:                                    10.938    10.938   0.0% |
   iFFT:                                    10.629    10.629   0.0% |
   potential:                               69.717     0.246   0.0% |
    collect:                                11.494    11.494   0.0% |
    p1:                                     26.528    26.528   0.0% |
    p2:                                     17.708    17.708   0.0% |
    sum:                                    13.741    13.741   0.0% |
   splines:                                 22.466    22.466   0.0% |
 vbar:                                       0.044     0.044   0.0% |
LCAO initialization:                        10.447     0.109   0.0% |
 LCAO eigensolver:                           0.477     0.001   0.0% |
  Calculate projections:                     0.000     0.000   0.0% |
  DenseAtomicCorrection:                     0.000     0.000   0.0% |
  Distribute overlap matrix:                 0.297     0.297   0.0% |
  Orbital Layouts:                           0.169     0.169   0.0% |
  Potential matrix:                          0.002     0.002   0.0% |
  Sum over cells:                            0.008     0.008   0.0% |
 LCAO to grid:                               9.522     9.522   0.0% |
 Set positions (LCAO WFS):                   0.339     0.201   0.0% |
  Basic WFS set positions:                   0.044     0.044   0.0% |
  Basis functions set positions:             0.000     0.000   0.0% |
  P tci:                                     0.000     0.000   0.0% |
  ST tci:                                    0.045     0.045   0.0% |
  mktci:                                     0.048     0.048   0.0% |
Redistribute:                                0.015     0.015   0.0% |
SCF-cycle:                               59871.703    40.624   0.1% |
 Davidson:                               40882.958 19062.671  31.5% |------------|
  Apply hamiltonian:                      1555.157  1555.157   2.6% ||
  Subspace diag:                          3816.310     0.029   0.0% |
   calc_h_matrix:                         1324.056   618.491   1.0% |
    Apply hamiltonian:                     705.564   705.564   1.2% |
   diagonalize:                            105.928   105.928   0.2% |
   rotate_psi:                            2386.298  2386.298   3.9% |-|
  calc. matrices:                         9365.129  6763.382  11.2% |---|
   Apply hamiltonian:                     2601.747  2601.747   4.3% |-|
  diagonalize:                             145.871   145.871   0.2% |
  rotate_psi:                             6937.820  6937.820  11.5% |----|
 Density:                                  341.332     0.004   0.0% |
  Atomic density matrices:                   2.410     2.410   0.0% |
  Mix:                                      35.430    35.430   0.1% |
  Multipole moments:                         0.815     0.815   0.0% |
  Pseudo density:                          302.673    45.856   0.1% |
   Symmetrize density:                     256.817   256.817   0.4% |
 Hamiltonian:                            18552.556     0.016   0.0% |
  Atomic:                                   30.820     4.254   0.0% |
   XC Correction:                           26.565    26.565   0.0% |
  Calculate atomic Hamiltonians:            12.113    12.113   0.0% |
  Communicate:                              39.932    39.932   0.1% |
  Hartree integrate/restrict:               15.849    15.849   0.0% |
  Poisson:                                 196.737    74.143   0.1% |
   Communicate from 1D:                     24.381    24.381   0.0% |
   Communicate from 2D:                     26.044    26.044   0.0% |
   Communicate to 1D:                       13.804    13.804   0.0% |
   Communicate to 2D:                       29.189    29.189   0.0% |
   FFT 1D:                                  15.123    15.123   0.0% |
   FFT 2D:                                  14.052    14.052   0.0% |
  XC 3D grid:                            18255.881   692.557   1.1% |
   VdW-DF integral:                      17563.323    56.275   0.1% |
    Convolution:                          1503.577  1503.577   2.5% ||
    FFT:                                   332.121   332.121   0.5% |
    gather:                              12449.705 12449.705  20.5% |-------|
    hmm1:                                  301.141   301.141   0.5% |
    hmm2:                                  399.196   399.196   0.7% |
    iFFT:                                  315.671   315.671   0.5% |
    potential:                            2205.635    10.588   0.0% |
     collect:                              367.333   367.333   0.6% |
     p1:                                   840.818   840.818   1.4% ||
     p2:                                   580.004   580.004   1.0% |
     sum:                                  406.891   406.891   0.7% |
    splines:                                 0.001     0.001   0.0% |
  vbar:                                      1.208     1.208   0.0% |
 Orthonormalize:                            54.232     0.001   0.0% |
  calc_s_matrix:                             8.197     8.197   0.0% |
  inverse-cholesky:                          8.622     8.622   0.0% |
  projections:                               0.000     0.000   0.0% |
  rotate_psi_s:                             37.413    37.413   0.1% |
Set symmetry:                                0.024     0.024   0.0% |
Other:                                      43.534    43.534   0.1% |
-------------------------------------------------------------------
Total:                                             60583.229 100.0%

Memory usage: 3.22 GiB
Date: Thu Jan 19 17:33:26 2023
