
  ___ ___ ___ _ _ _  
 |   |   |_  | | | | 
 | | | | | . | | | | 
 |__ |  _|___|_____|  22.8.0
 |___|_|             

User:   vazumah@c12.hercules
Date:   Mon Feb 13 09:14:54 2023
Arch:   x86_64
Pid:    19727
CWD:    /home/vazumah/Python_projects/LiNRR/autocad_start/slab_experiments/fixed_slab_def_vacuum/Ca/fcc111/substrate
Python: 3.10.8
gpaw:   /home/vazumah/.conda/envs/GPAW/lib/python3.10/site-packages/gpaw
_gpaw:  /home/vazumah/.conda/envs/GPAW/lib/python3.10/site-packages/
        _gpaw.cpython-310-x86_64-linux-gnu.so
ase:    /home/vazumah/.conda/envs/GPAW/lib/python3.10/site-packages/ase (version 3.22.1)
numpy:  /home/vazumah/.conda/envs/GPAW/lib/python3.10/site-packages/numpy (version 1.24.1)
scipy:  /home/vazumah/.conda/envs/GPAW/lib/python3.10/site-packages/scipy (version 1.10.0)
libxc:  5.2.3
units:  Angstrom and eV
cores: 24
OpenMP: True
OMP_NUM_THREADS: 1

Input parameters:
  eigensolver: {name: dav,
                niter: 3}
  h: 0.16
  kpts: {size: [1, 1, 1]}
  maxiter: 999
  mixer: {backend: pulay,
          beta: 0.01,
          method: difference,
          nmaxold: 5,
          weight: 100}
  occupations: {name: fermi-dirac,
                width: 0.05}
  poissonsolver: {dipolelayer: xy}
  xc: BEEF-vdW

System changes: positions, numbers, cell, pbc, initial_charges, initial_magmoms 

Initialize ...

species:
  Ca:
    name: Calcium
    id: 0641b8f64fa1d43c6d3de45527ace046
    Z: 20.0
    valence: 10
    core: 10
    charge: 0.0
    file: /home/vazumah/.conda/envs/GPAW/share/gpaw/Ca.PBE.gz
    compensation charges: {type: gauss,
                           rc: 0.37,
                           lmax: 2}
    cutoffs: {filter: 2.10,
              core: 1.17}
    valence states:
      #              energy  rcut
      - 3s(2.00)   -47.086   1.175
      - 4s(2.00)    -3.766   1.175
      - 3p(6.00)   -28.008   1.154
      -  p          -0.797   1.154
      -  d           0.000   0.937
  
    # Using partial waves for Ca as LCAO basis

Reference energy: -666391.292358  # eV

Spin-paired calculation

Convergence criteria:
 Maximum [total energy] change in last 3 cyles: 0.0005 eV / electron
 Maximum integral of absolute [dens]ity change: 0.0001 electrons / valence electron
 Maximum integral of absolute [eigenst]ate change: 4e-08 eV^2 / valence electron
 Maximum number of scf [iter]ations: 999
 (Square brackets indicate name in SCF output, whereas a 'c' in
 the SCF output indicates the quantity has converged.)

Symmetries present (total): 12

  ( 1  0  0)  ( 1  0  0)  ( 1 -1  0)  ( 1 -1  0)  ( 0  1  0)  ( 0  1  0)
  ( 1 -1  0)  ( 0  1  0)  ( 1  0  0)  ( 0 -1  0)  ( 1  0  0)  (-1  1  0)
  ( 0  0 -1)  ( 0  0  1)  ( 0  0 -1)  ( 0  0  1)  ( 0  0  1)  ( 0  0 -1)

  ( 0 -1  0)  ( 0 -1  0)  (-1  1  0)  (-1  1  0)  (-1  0  0)  (-1  0  0)
  ( 1 -1  0)  (-1  0  0)  ( 0  1  0)  (-1  0  0)  ( 0 -1  0)  (-1  1  0)
  ( 0  0  1)  ( 0  0 -1)  ( 0  0 -1)  ( 0  0  1)  ( 0  0 -1)  ( 0  0  1)

1 k-point (Gamma)
1 k-point in the irreducible part of the Brillouin zone
       k-points in crystal coordinates                weights
   0:     0.00000000    0.00000000    0.00000000          1/1

Wave functions: Uniform real-space grid
  Kinetic energy operator: 8*3+1=25 point O(h^6) finite-difference Laplacian
  ScaLapack parameters: grid=1x1, blocksize=None
  Wavefunction extrapolation:
    Improved wavefunction reuse through dual PAW basis 

Occupation numbers: Fermi-Dirac:
  width: 0.0500  # eV
 

Eigensolver
   Davidson(niter=3) 

Densities:
  Coarse grid: 64*64*184 grid
  Fine grid: 128*128*368 grid
  Total Charge: 0.000000 

Density mixing:
  Method: separate
  Backend: pulay
  Linear mixing parameter: 0.01
  old densities: 5
  Damping of long wavelength oscillations: 100 

Hamiltonian:
  XC and Coulomb potentials evaluated on a 128*128*368 grid
  Using the BEEF-vdW Exchange-Correlation functional
  Interpolation: tri-quintic (5. degree polynomial)
  Poisson solver: FastPoissonSolver using
    Stencil: 8*3+1=25 point O(h^6) finite-difference Laplacian
    FFT axes: [0, 1]
    FST axes: [2]

Dipole correction along z-axis 

XC parameters: BEEF-vdW with 2 nearest neighbor stencil

Memory estimate:
  Process memory now: 99.38 MiB
  Calculator: 111.96 MiB
    Density: 17.92 MiB
      Arrays: 6.19 MiB
      Localized functions: 9.39 MiB
      Mixer: 2.34 MiB
    Hamiltonian: 4.79 MiB
      Arrays: 4.05 MiB
      XC: 0.00 MiB
      Poisson: 0.00 MiB
      vbar: 0.74 MiB
    Wavefunctions: 89.26 MiB
      Arrays psit_nG: 42.19 MiB
      Eigensolver: 45.84 MiB
      Projections: 0.03 MiB
      Projectors: 1.20 MiB

Total number of cores used: 24
Domain decomposition: 2 x 2 x 6

Number of atoms: 36
Number of atomic orbitals: 180
Number of bands in calculation: 180
Number of valence electrons: 360
Bands to converge: occupied

... initialized

Initializing position-dependent things.

Density initialized from atomic densities
Creating initial wave functions:
  180 bands from LCAO basis set

                                                        
                                                        
                                                        
                                                        
                                                        
                     Ca        Ca        Ca             
                                                        
              Ca        Ca        Ca                    
                      Ca        Ca        Ca            
       Ca        Ca        Ca                           
                Ca       Ca        Ca                   
                                                        
         Ca       Ca       CCa      Ca        Ca        
                                                        
                                                        
                    Ca       Ca        Ca               
                                                        
             Ca      CCa       CCa       Ca             
                                                        
              Ca        Ca        Ca                    
                                                        
       Ca        Ca        Ca                           
                                                        
                                                        
                                                        
                                                        

Positions:
   0 Ca     0.000000    0.000000   10.000000    ( 0.0000,  0.0000,  0.0000)
   1 Ca     3.945656    0.000000   10.000000    ( 0.0000,  0.0000,  0.0000)
   2 Ca     7.891312    0.000000   10.000000    ( 0.0000,  0.0000,  0.0000)
   3 Ca     1.972828    3.417038   10.000000    ( 0.0000,  0.0000,  0.0000)
   4 Ca     5.918484    3.417038   10.000000    ( 0.0000,  0.0000,  0.0000)
   5 Ca     9.864140    3.417038   10.000000    ( 0.0000,  0.0000,  0.0000)
   6 Ca     3.945656    6.834076   10.000000    ( 0.0000,  0.0000,  0.0000)
   7 Ca     7.891312    6.834076   10.000000    ( 0.0000,  0.0000,  0.0000)
   8 Ca    11.836968    6.834076   10.000000    ( 0.0000,  0.0000,  0.0000)
   9 Ca     1.972828    1.139013   13.221615    ( 0.0000,  0.0000,  0.0000)
  10 Ca     5.918484    1.139013   13.221615    ( 0.0000,  0.0000,  0.0000)
  11 Ca     9.864140    1.139013   13.221615    ( 0.0000,  0.0000,  0.0000)
  12 Ca     3.945656    4.556051   13.221615    ( 0.0000,  0.0000,  0.0000)
  13 Ca     7.891312    4.556051   13.221615    ( 0.0000,  0.0000,  0.0000)
  14 Ca    11.836968    4.556051   13.221615    ( 0.0000,  0.0000,  0.0000)
  15 Ca     5.918484    7.973089   13.221615    ( 0.0000,  0.0000,  0.0000)
  16 Ca     9.864140    7.973089   13.221615    ( 0.0000,  0.0000,  0.0000)
  17 Ca    13.809795    7.973089   13.221615    ( 0.0000,  0.0000,  0.0000)
  18 Ca     0.000000    2.278025   16.443229    ( 0.0000,  0.0000,  0.0000)
  19 Ca     3.945656    2.278025   16.443229    ( 0.0000,  0.0000,  0.0000)
  20 Ca     7.891312    2.278025   16.443229    ( 0.0000,  0.0000,  0.0000)
  21 Ca     1.972828    5.695064   16.443229    ( 0.0000,  0.0000,  0.0000)
  22 Ca     5.918484    5.695064   16.443229    ( 0.0000,  0.0000,  0.0000)
  23 Ca     9.864140    5.695064   16.443229    ( 0.0000,  0.0000,  0.0000)
  24 Ca     3.945656    9.112102   16.443229    ( 0.0000,  0.0000,  0.0000)
  25 Ca     7.891312    9.112102   16.443229    ( 0.0000,  0.0000,  0.0000)
  26 Ca    11.836968    9.112102   16.443229    ( 0.0000,  0.0000,  0.0000)
  27 Ca     0.000000    0.000000   19.664844    ( 0.0000,  0.0000,  0.0000)
  28 Ca     3.945656    0.000000   19.664844    ( 0.0000,  0.0000,  0.0000)
  29 Ca     7.891312    0.000000   19.664844    ( 0.0000,  0.0000,  0.0000)
  30 Ca     1.972828    3.417038   19.664844    ( 0.0000,  0.0000,  0.0000)
  31 Ca     5.918484    3.417038   19.664844    ( 0.0000,  0.0000,  0.0000)
  32 Ca     9.864140    3.417038   19.664844    ( 0.0000,  0.0000,  0.0000)
  33 Ca     3.945656    6.834076   19.664844    ( 0.0000,  0.0000,  0.0000)
  34 Ca     7.891312    6.834076   19.664844    ( 0.0000,  0.0000,  0.0000)
  35 Ca    11.836968    6.834076   19.664844    ( 0.0000,  0.0000,  0.0000)

Unit cell:
           periodic     x           y           z      points  spacing
  1. axis:    yes   11.836968    0.000000    0.000000    64     0.1602
  2. axis:    yes    5.918484   10.251115    0.000000    64     0.1602
  3. axis:    no     0.000000    0.000000   29.664844   184     0.1612

  Lengths:  11.836968  11.836968  29.664844
  Angles:   90.000000  90.000000  60.000000

Effective grid spacing dv^(1/3) = 0.1684

     iter     time        total  log10-change:
                         energy  eigst   dens
iter:   1 09:20:41 -1558.848898
iter:   2 09:26:02 -1569.911444  +0.72  -1.62
iter:   3 09:31:23 -1576.207918  +0.24  -1.57
iter:   4 09:36:54 -1580.302937  +0.23  -1.53
Writing to output.gpw (mode='')

iter:   5 09:42:04 -1584.055175  -0.20  -1.46
iter:   6 09:47:03 -1585.896245  -0.09  -1.66
iter:   7 09:52:24 -1587.206159  -0.57  -1.64
iter:   8 09:57:38 -1588.502013  -0.46  -1.60
iter:   9 10:02:58 -1588.491799  -0.80  -1.55
Writing to output.gpw (mode='')

iter:  10 10:08:14 -1586.171517  -0.38  -1.53
iter:  11 10:13:36 -1587.751999  -0.02  -1.68
iter:  12 10:18:51 -1589.526601  -0.76  -1.63
iter:  13 10:24:34 -1586.487267  -0.84  -1.54
iter:  14 10:29:57 -1587.434098  -1.45  -1.59
Writing to output.gpw (mode='')

iter:  15 10:35:32 -1587.901919  -1.32  -1.59
iter:  16 10:40:44 -1588.461469  -1.34  -1.57
iter:  17 10:46:04 -1586.350995  -1.01  -1.55
iter:  18 10:51:27 -1587.085927  -0.77  -1.59
iter:  19 10:56:54 -1602.524310  -0.18  -1.59
Writing to output.gpw (mode='')

iter:  20 11:02:31 -1585.407957  -0.42  -1.27
iter:  21 11:07:39 -1641.398426  +0.16  -1.39
iter:  22 11:13:02 -1582.662160  +0.11  -1.02
iter:  23 11:18:33 -1630.390878  -0.11  -1.13
iter:  24 11:23:50 -1609.350779  -0.65  -1.03
Writing to output.gpw (mode='')

iter:  25 11:29:23 -1613.601667  -1.12  -1.04
iter:  26 11:35:01 -1690.426373  +1.29  -1.03
iter:  27 11:40:19 -1583.780108  +0.50  -0.99
iter:  28 11:45:28 -1592.783629  +0.54  -1.17
iter:  29 11:50:53 -1592.191308  +0.31  -1.49
Writing to output.gpw (mode='')

iter:  30 11:56:17 -1589.088583  -0.59  -1.47
iter:  31 12:01:30 -1596.508071  -0.71  -1.49
iter:  32 12:07:10 -1592.503540  -0.67  -1.38
iter:  33 12:12:38 -1609.320003  -0.54  -1.38
iter:  34 12:17:54 -1583.254334  -0.43  -1.14
Writing to output.gpw (mode='')

iter:  35 12:23:07 -1586.616021  -0.40  -1.33
iter:  36 12:28:28 -1587.826801  -0.90  -1.36
iter:  37 12:33:48 -1589.138757  -1.16  -1.38
iter:  38 12:39:16 -1586.758356  -1.11  -1.39
iter:  39 12:44:54 -1593.998882  -0.93  -1.48
Writing to output.gpw (mode='')

iter:  40 12:50:23 -1592.774926  -0.03  -1.38
iter:  41 12:55:52 -1590.283462  -0.22  -1.56
iter:  42 13:01:10 -1587.475230  -1.01  -1.57
iter:  43 13:06:23 -1587.088843  -0.89  -1.65
iter:  44 13:11:49 -1587.514686  -0.80  -1.72
Writing to output.gpw (mode='')

iter:  45 13:17:14 -1588.774628  -0.85  -1.71
iter:  46 13:22:36 -1588.604443  -0.78  -1.66
iter:  47 13:27:56 -1587.773112  -1.55  -1.68
iter:  48 13:33:30 -1588.661150  -1.37  -1.75
iter:  49 13:38:49 -1613.664900  +0.02  -1.70
Writing to output.gpw (mode='')

iter:  50 13:44:13 -1600.809447  -0.29  -1.20
iter:  51 13:49:40 -1585.709535  -0.67  -1.21
iter:  52 13:54:55 -1588.745328  -0.65  -1.36
iter:  53 14:00:11 -1586.135321  -1.06  -1.38
iter:  54 14:05:29 -1588.886069  -1.44  -1.58
Writing to output.gpw (mode='')

iter:  55 14:09:24 -1591.485320  -0.30  -1.53
iter:  56 14:14:53 -1587.804986  -0.31  -1.56
iter:  57 14:20:02 -1592.805147  +0.00  -1.81
iter:  58 14:25:32 -1591.946451  -0.24  -1.61
iter:  59 14:30:47 -1591.161239  -0.95  -1.56
Writing to output.gpw (mode='')

iter:  60 14:36:20 -1587.682329  -1.30  -1.56
iter:  61 14:41:29 -1601.082897  -0.44  -1.67
iter:  62 14:46:41 -1599.589176  -0.52  -1.31
iter:  63 14:52:08 -1584.593699  -0.57  -1.29
iter:  64 14:57:32 -1585.038745  -0.17  -1.59
Writing to output.gpw (mode='')

iter:  65 15:02:40 -1586.986174  -0.30  -1.74
iter:  66 15:07:50 -1588.188199  -0.37  -1.75
iter:  67 15:13:13 -1587.976327  -0.53  -1.78
iter:  68 15:18:09 -1587.862871  -1.21  -1.86
iter:  69 15:23:18 -1587.858769c -1.44  -1.90
Writing to output.gpw (mode='')

iter:  70 15:28:38 -1591.291148  -0.83  -1.97
iter:  71 15:33:50 -1591.205996  -0.77  -1.63
iter:  72 15:39:00 -1588.373057  -1.38  -1.59
iter:  73 15:44:07 -1588.814286  -1.94  -1.65
iter:  74 15:49:25 -1591.847177  -1.52  -1.65
Writing to output.gpw (mode='')

iter:  75 15:54:31 -1586.593482  -0.92  -1.49
iter:  76 15:59:39 -1587.592069  -0.88  -1.85
iter:  77 16:05:01 -1588.295745  -1.06  -1.86
iter:  78 16:10:13 -1588.471308  -0.69  -1.86
iter:  79 16:15:37 -1588.879621  -0.71  -1.93
Writing to output.gpw (mode='')

iter:  80 16:20:51 -1588.811801  -1.26  -1.85
iter:  81 16:26:15 -1589.304158  -1.41  -1.80
iter:  82 16:31:22 -1591.379673  -1.12  -1.74
iter:  83 16:36:41 -1591.992590  -0.76  -1.60
iter:  84 16:42:10 -1591.797783  -1.12  -1.54
Writing to output.gpw (mode='')

iter:  85 16:47:36 -1597.790938  -0.96  -1.51
iter:  86 16:52:51 -1595.174519  -0.91  -1.35
iter:  87 16:58:04 -1598.823202  -1.07  -1.34
iter:  88 17:03:22 -1592.410502  -1.35  -1.29
iter:  89 17:08:47 -1597.816269  -1.59  -1.32
Writing to output.gpw (mode='')

iter:  90 17:14:05 -1593.422214  -1.71  -1.27
iter:  91 17:19:19 -1591.628972  +0.15  -1.29
iter:  92 17:24:32 -1586.750671  -0.21  -1.55
iter:  93 17:29:56 -1587.837458  -0.38  -1.93
iter:  94 17:35:06 -1588.048290  -0.96  -2.01
Writing to output.gpw (mode='')

iter:  95 17:40:26 -1587.911358  -1.49  -2.02
iter:  96 17:45:48 -1587.954596c -1.57  -2.23
iter:  97 17:51:02 -1588.571552  -1.42  -2.36
iter:  98 17:56:30 -1588.294392  -1.44  -2.02
iter:  99 18:01:46 -1589.022537  -1.74  -2.02
Writing to output.gpw (mode='')

iter: 100 18:07:02 -1589.327561  -1.18  -1.84
iter: 101 18:12:33 -1588.620592  -1.96  -1.78
iter: 102 18:17:49 -1589.689390  -1.99  -1.81
iter: 103 18:23:03 -1588.195658  -1.78  -1.68
iter: 104 18:28:08 -1589.493928  -1.83  -1.77
Writing to output.gpw (mode='')

iter: 105 18:33:36 -1587.924129  -1.78  -1.70
iter: 106 18:39:07 -1587.657127  -1.05  -1.81
iter: 107 18:44:38 -1587.952484  -1.75  -2.34
iter: 108 18:49:44 -1588.018605  -2.36  -2.29
iter: 109 18:54:56 -1588.002274c -2.44  -2.28
Writing to output.gpw (mode='')

iter: 110 19:00:24 -1588.296244  -1.67  -2.28
iter: 111 19:05:42 -1588.287479  -1.68  -2.08
iter: 112 19:11:03 -1587.930786  -1.87  -2.06
iter: 113 19:16:11 -1588.831982  -1.01  -2.35
iter: 114 19:21:32 -1589.061219  -0.85  -2.02
Writing to output.gpw (mode='')

iter: 115 19:26:46 -1588.132572  -2.04  -1.93
iter: 116 19:32:00 -1587.901500  -2.14  -2.02
iter: 117 19:37:14 -1588.175021  -2.12  -2.21
iter: 118 19:42:34 -1588.071893  -3.20  -2.15
iter: 119 19:48:04 -1588.655479  -2.04  -2.17
Writing to output.gpw (mode='')

iter: 120 19:53:24 -1588.765838  -1.95  -1.89
iter: 121 19:58:48 -1588.462709  -2.40  -1.86
iter: 122 20:04:18 -1587.935884  -2.25  -1.87
iter: 123 20:09:52 -1587.816855  -1.60  -2.06
iter: 124 20:15:31 -1587.893189c -1.48  -2.33
Writing to output.gpw (mode='')

iter: 125 20:21:00 -1588.057365  -1.81  -2.40
iter: 126 20:26:19 -1588.033251c -1.76  -2.38
iter: 127 20:31:40 -1588.114608c -2.04  -2.39
iter: 128 20:36:58 -1588.012815c -2.68  -2.35
iter: 129 20:42:05 -1587.983433c -2.97  -2.41
Writing to output.gpw (mode='')

iter: 130 20:47:40 -1588.094785c -2.42  -2.51
iter: 131 20:53:12 -1587.954896c -2.13  -2.35
iter: 132 20:58:36 -1587.993273c -2.08  -2.53
iter: 133 21:03:55 -1588.314403  -1.60  -2.57
iter: 134 21:09:19 -1588.416365  -1.26  -2.22
Writing to output.gpw (mode='')

iter: 135 21:14:46 -1588.221703  -2.11  -2.12
iter: 136 21:20:06 -1588.358686  -2.39  -2.11
iter: 137 21:25:35 -1587.847536  -1.79  -2.03
iter: 138 21:31:14 -1587.911005  -1.50  -2.34
iter: 139 21:36:44 -1587.970187c -1.86  -2.56
Writing to output.gpw (mode='')

iter: 140 21:42:22 -1587.993340c -2.36  -2.60
iter: 141 21:47:47 -1588.018968c -2.02  -2.58
iter: 142 21:53:13 -1588.157441c -2.00  -2.55
iter: 143 21:58:28 -1588.212483  -1.56  -2.35
iter: 144 22:03:54 -1588.243610c -2.17  -2.25
Writing to output.gpw (mode='')

iter: 145 22:09:18 -1588.353547c -1.90  -2.17
iter: 146 22:14:40 -1588.176640c -2.59  -2.08
iter: 147 22:20:12 -1588.424516  -2.51  -2.09
iter: 148 22:25:32 -1588.141071  -2.72  -1.97
iter: 149 22:31:07 -1587.985559  -2.49  -2.01
Writing to output.gpw (mode='')

iter: 150 22:36:32 -1588.038946c -2.44  -2.11
iter: 151 22:42:13 -1587.962976c -2.80  -2.13
iter: 152 22:47:19 -1587.956750c -2.15  -2.25
iter: 153 22:52:27 -1587.927048c -2.40  -2.31
iter: 154 22:57:44 -1587.954239c -1.75  -2.62
Writing to output.gpw (mode='')

iter: 155 23:02:57 -1588.017963c -2.19  -2.75
iter: 156 23:08:16 -1588.054266c -1.80  -2.67
iter: 157 23:13:23 -1588.035221c -2.32  -2.53
iter: 158 23:18:37 -1587.983559c -2.78  -2.52
iter: 159 23:23:44 -1587.992802c -2.51  -2.77
Writing to output.gpw (mode='')

iter: 160 23:28:49 -1588.002338c -2.28  -2.96
iter: 161 23:34:28 -1588.004822c -2.89  -2.89
iter: 162 23:39:35 -1588.004565c -2.94  -2.81
iter: 163 23:44:52 -1587.997233c -3.72  -2.77
iter: 164 23:50:04 -1587.992820c -3.31  -2.82
Writing to output.gpw (mode='')

iter: 165 23:55:24 -1587.993344c -3.25  -3.10
iter: 166 00:00:23 -1587.993147c -3.78  -3.13
iter: 167 00:05:28 -1587.993720c -3.84  -3.14
iter: 168 00:10:48 -1587.993634c -4.19  -3.14
iter: 169 00:15:48 -1587.993701c -4.60  -3.14
Writing to output.gpw (mode='')

iter: 170 00:21:00 -1587.993485c -4.61  -3.15
iter: 171 00:26:08 -1587.993842c -4.62  -3.17
iter: 172 00:31:04 -1587.995750c -4.07  -3.20
iter: 173 00:36:16 -1587.994334c -4.14  -3.21
iter: 174 00:41:20 -1587.995576c -4.27  -3.32
Writing to output.gpw (mode='')

iter: 175 00:46:41 -1587.995156c -4.51  -3.23
iter: 176 00:51:54 -1587.994474c -4.23  -3.22
iter: 177 00:57:11 -1587.994319c -4.12  -3.27
iter: 178 01:02:21 -1587.994751c -4.42  -3.28
iter: 179 01:07:28 -1587.998722c -3.83  -3.26
Writing to output.gpw (mode='')

iter: 180 01:12:37 -1587.993350c -3.38  -3.06
iter: 181 01:17:48 -1587.994561c -3.65  -3.25
iter: 182 01:23:14 -1587.995042c -4.28  -3.19
iter: 183 01:28:31 -1587.995160c -4.36  -3.23
iter: 184 01:33:36 -1587.997075c -3.73  -3.23
Writing to output.gpw (mode='')

iter: 185 01:38:49 -1587.996435c -3.58  -3.15
iter: 186 01:43:50 -1587.997530c -3.54  -3.13
iter: 187 01:48:50 -1587.995930c -3.75  -3.12
iter: 188 01:54:01 -1587.993515c -4.00  -3.13
iter: 189 01:59:29 -1587.994175c -4.36  -3.41
Writing to output.gpw (mode='')

iter: 190 02:04:50 -1587.994565c -4.87  -3.45
iter: 191 02:10:00 -1587.995162c -4.28  -3.39
iter: 192 02:15:18 -1587.994938c -4.21  -3.31
iter: 193 02:20:39 -1587.996458c -4.37  -3.29
iter: 194 02:25:59 -1587.997372c -3.76  -3.18
Writing to output.gpw (mode='')

iter: 195 02:31:16 -1587.995058c -4.21  -3.11
iter: 196 02:36:29 -1587.994263c -4.72  -3.15
iter: 197 02:41:43 -1587.993490c -4.47  -3.20
iter: 198 02:46:58 -1587.993512c -3.93  -3.29
iter: 199 02:52:19 -1587.995931c -3.90  -3.33
Writing to output.gpw (mode='')

iter: 200 02:57:48 -1587.993335c -3.81  -3.23
iter: 201 03:03:03 -1587.994442c -3.79  -3.32
iter: 202 03:08:20 -1587.994284c -3.96  -3.34
iter: 203 03:13:41 -1587.996393c -3.93  -3.38
iter: 204 03:19:00 -1587.993556c -3.88  -3.23
Writing to output.gpw (mode='')

iter: 205 03:24:25 -1587.994016c -4.04  -3.38
iter: 206 03:29:39 -1587.994095c -4.33  -3.50
iter: 207 03:35:03 -1587.994357c -4.74  -3.55
iter: 208 03:40:39 -1587.994078c -4.58  -3.53
iter: 209 03:46:14 -1587.994321c -4.75  -3.64
Writing to output.gpw (mode='')

iter: 210 03:51:47 -1587.994269c -4.80  -3.60
iter: 211 03:57:21 -1587.994187c -5.47  -3.60
iter: 212 04:02:53 -1587.994263c -5.06  -3.62
iter: 213 04:08:25 -1587.994230c -5.10  -3.63
iter: 214 04:13:54 -1587.994289c -5.21  -3.62
Writing to output.gpw (mode='')

iter: 215 04:19:13 -1587.994314c -4.74  -3.58
iter: 216 04:24:35 -1587.994424c -4.47  -3.59
iter: 217 04:29:49 -1587.994464c -4.91  -3.55
iter: 218 04:35:10 -1587.994561c -4.71  -3.51
iter: 219 04:40:23 -1587.994742c -4.56  -3.46
Writing to output.gpw (mode='')

iter: 220 04:46:02 -1587.994913c -4.59  -3.40
iter: 221 04:51:16 -1587.995197c -4.53  -3.35
iter: 222 04:56:40 -1587.994127c -4.77  -3.29
iter: 223 05:02:06 -1587.994264c -5.04  -3.37
iter: 224 05:07:41 -1587.996169c -4.53  -3.39
Writing to output.gpw (mode='')

iter: 225 05:12:59 -1587.993888c -4.46  -3.14
iter: 226 05:18:11 -1587.993504c -4.21  -3.26
iter: 227 05:23:29 -1587.993640c -3.93  -3.47
iter: 228 05:28:33 -1587.993857c -4.13  -3.62
iter: 229 05:34:05 -1587.994032c -4.63  -3.68
Writing to output.gpw (mode='')

iter: 230 05:39:36 -1587.994179c -5.30  -3.70
iter: 231 05:44:55 -1587.994184c -5.35  -3.65
iter: 232 05:50:11 -1587.994104c -5.70  -3.63
iter: 233 05:55:21 -1587.994078c -5.35  -3.66
iter: 234 06:00:50 -1587.994097c -5.13  -3.71
Writing to output.gpw (mode='')

iter: 235 06:05:56 -1587.994301c -5.13  -3.72
iter: 236 06:11:02 -1587.994548c -4.79  -3.62
iter: 237 06:16:12 -1587.994441c -4.74  -3.55
iter: 238 06:21:12 -1587.994074c -4.93  -3.58
iter: 239 06:26:39 -1587.994206c -4.41  -3.86
Writing to output.gpw (mode='')

iter: 240 06:31:56 -1587.994241c -4.57  -4.02c
iter: 241 06:37:27 -1587.994762c -4.68  -3.94
iter: 242 06:42:43 -1587.994735c -4.53  -3.51
iter: 243 06:48:15 -1587.994972c -4.75  -3.47
iter: 244 06:53:30 -1587.994889c -4.67  -3.41
Writing to output.gpw (mode='')

iter: 245 06:58:48 -1587.994597c -5.31  -3.38
iter: 246 07:04:05 -1587.995450c -4.85  -3.40
iter: 247 07:09:25 -1587.993726c -4.26  -3.28
iter: 248 07:14:42 -1587.995085c -4.30  -3.48
iter: 249 07:19:54 -1587.995563c -3.74  -3.34
Writing to output.gpw (mode='')

iter: 250 07:25:14 -1587.994206c -4.04  -3.38
iter: 251 07:30:59 -1587.994206c -4.35  -3.54
iter: 252 07:36:21 -1587.994263c -4.27  -4.03c
iter: 253 07:41:47 -1587.994237c -5.04  -3.93
iter: 254 07:47:02 -1587.994247c -5.37  -3.90
Writing to output.gpw (mode='')

iter: 255 07:52:29 -1587.994264c -5.49  -3.86
iter: 256 07:57:46 -1587.994270c -5.52  -3.82
iter: 257 08:03:02 -1587.994191c -5.62  -3.79
iter: 258 08:08:26 -1587.994199c -5.74  -3.89
iter: 259 08:13:51 -1587.994198c -5.97  -3.90
Writing to output.gpw (mode='')

iter: 260 08:19:10 -1587.994205c -5.47  -3.91
iter: 261 08:24:24 -1587.994184c -5.78  -3.88
iter: 262 08:29:40 -1587.994253c -5.06  -3.96
iter: 263 08:35:12 -1587.994173c -5.40  -3.93
iter: 264 08:40:43 -1587.994222c -5.29  -4.00
Writing to output.gpw (mode='')

iter: 265 08:46:15 -1587.994170c -5.67  -4.01c
iter: 266 08:51:54 -1587.994181c -5.63  -4.11c
iter: 267 08:57:08 -1587.994204c -5.21  -4.22c
iter: 268 09:02:18 -1587.994228c -4.99  -4.16c
iter: 269 09:07:34 -1587.994230c -5.37  -4.05c
Writing to output.gpw (mode='')

iter: 270 09:13:01 -1587.994191c -6.06  -3.99
iter: 271 09:18:44 -1587.994165c -5.88  -4.02c
iter: 272 09:24:01 -1587.994167c -6.34  -4.36c
iter: 273 09:29:14 -1587.994193c -6.20  -4.36c
iter: 274 09:34:25 -1587.994176c -6.57  -4.13c
Writing to output.gpw (mode='')

iter: 275 09:39:45 -1587.994168c -6.79  -4.17c
iter: 276 09:45:15 -1587.994163c -6.11  -4.23c
iter: 277 09:50:24 -1587.994170c -5.76  -4.32c
iter: 278 09:55:37 -1587.994185c -5.46  -4.36c
iter: 279 10:00:56 -1587.994172c -6.30  -4.26c
Writing to output.gpw (mode='')

iter: 280 10:06:07 -1587.994169c -7.02  -4.30c
iter: 281 10:11:12 -1587.994171c -7.01  -4.35c
iter: 282 10:16:24 -1587.994197c -5.80  -4.37c
iter: 283 10:21:40 -1587.994206c -5.85  -4.13c
iter: 284 10:26:57 -1587.994159c -5.96  -4.07c
Writing to output.gpw (mode='')

iter: 285 10:32:13 -1587.994162c -5.66  -4.29c
iter: 286 10:37:25 -1587.994164c -5.93  -4.38c
iter: 287 10:42:35 -1587.994170c -6.70  -4.43c
iter: 288 10:47:49 -1587.994172c -7.28  -4.39c
iter: 289 10:53:02 -1587.994167c -6.87  -4.37c
Writing to output.gpw (mode='')

iter: 290 10:58:17 -1587.994167c -6.39  -4.44c
iter: 291 11:03:36 -1587.994202c -5.96  -4.47c
iter: 292 11:08:50 -1587.994166c -5.89  -4.16c
iter: 293 11:14:07 -1587.994176c -5.76  -4.32c
iter: 294 11:19:20 -1587.994169c -6.20  -4.56c
Writing to output.gpw (mode='')

iter: 295 11:24:37 -1587.994169c -7.00  -4.72c
iter: 296 11:29:44 -1587.994169c -7.05  -4.75c
iter: 297 11:34:58 -1587.994169c -7.12  -4.79c
iter: 298 11:40:25 -1587.994171c -7.25  -4.80c
iter: 299 11:45:43 -1587.994171c -7.06  -4.71c
Writing to output.gpw (mode='')

iter: 300 11:51:03 -1587.994171c -7.58c -4.70c

Converged after 300 iterations.

Dipole moment: (-21.920977, -12.656082, -0.000000) |e|*Ang

Energy contributions relative to reference atoms: (reference = -666391.292358)

Kinetic:       +358.035685
Potential:     -254.181430
External:        +0.000000
XC:            -1674.485200
Entropy (-ST):   -0.000000
Local:          -17.363227
--------------------------
Free energy:   -1587.994171
Extrapolated:  -1587.994171

Dipole-layer corrected work functions: -inf, -inf eV

 Band  Eigenvalues  Occupancy
    0    -46.31850    2.00000
    1    -46.31850    2.00000
    2    -46.31499    2.00000
    3    -46.31499    2.00000
    4    -46.31499    2.00000
    5    -46.31499    2.00000
    6    -46.31499    2.00000
    7    -46.31499    2.00000
    8    -46.31499    2.00000
    9    -46.31499    2.00000
   10    -46.31231    2.00000
   11    -46.31231    2.00000
   12    -46.30125    2.00000
   13    -46.30125    2.00000
   14    -46.30120    2.00000
   15    -46.30120    2.00000
   16    -46.30039    2.00000
   17    -46.30039    2.00000
   18    -45.91119    2.00000
   19    -45.90577    2.00000
   20    -45.90480    2.00000
   21    -45.90470    2.00000
   22    -45.90470    2.00000
   23    -45.90454    2.00000
   24    -45.90454    2.00000
   25    -45.90437    2.00000
   26    -45.90166    2.00000
   27    -45.90158    2.00000
   28    -45.90158    2.00000
   29    -45.90140    2.00000
   30    -45.90140    2.00000
   31    -45.90126    2.00000
   32    -45.90029    2.00000
   33    -45.90029    2.00000
   34    -45.90026    2.00000
   35    -45.90026    2.00000
   36    -27.28103    2.00000
   37    -27.28081    2.00000
   38    -27.27276    2.00000
   39    -27.27276    2.00000
   40    -27.27276    2.00000
   41    -27.27276    2.00000
   42    -27.27271    2.00000
   43    -27.27271    2.00000
   44    -27.27271    2.00000
   45    -27.27271    2.00000
   46    -27.26917    2.00000
   47    -27.26917    2.00000
   48    -27.26911    2.00000
   49    -27.26911    2.00000
   50    -27.26814    2.00000
   51    -27.26812    2.00000
   52    -27.26554    2.00000
   53    -27.26552    2.00000
   54    -27.22605    2.00000
   55    -27.22603    2.00000
   56    -27.22595    2.00000
   57    -27.22594    2.00000
   58    -27.22193    2.00000
   59    -27.22190    2.00000
   60    -27.22122    2.00000
   61    -27.22119    2.00000
   62    -27.22070    2.00000
   63    -27.22069    2.00000
   64    -27.22065    2.00000
   65    -27.22065    2.00000
   66    -27.22041    2.00000
   67    -27.22041    2.00000
   68    -27.22037    2.00000
   69    -27.22037    2.00000
   70    -27.21416    2.00000
   71    -27.21414    2.00000
   72    -27.21346    2.00000
   73    -27.21343    2.00000
   74    -27.17742    2.00000
   75    -27.17742    2.00000
   76    -27.17733    2.00000
   77    -27.17732    2.00000
   78    -27.17050    2.00000
   79    -27.17050    2.00000
   80    -27.17047    2.00000
   81    -27.17047    2.00000
   82    -27.17006    2.00000
   83    -27.17006    2.00000
   84    -27.17005    2.00000
   85    -27.17004    2.00000
   86    -27.15736    2.00000
   87    -27.15736    2.00000
   88    -27.15665    2.00000
   89    -27.15665    2.00000
   90    -26.88898    2.00000
   91    -26.87350    2.00000
   92    -26.87347    2.00000
   93    -26.87336    2.00000
   94    -26.87333    2.00000
   95    -26.87220    2.00000
   96    -26.87188    2.00000
   97    -26.85861    2.00000
   98    -26.85860    2.00000
   99    -26.85491    2.00000
  100    -26.85490    2.00000
  101    -26.84930    2.00000
  102    -26.84919    2.00000
  103    -26.84693    2.00000
  104    -26.84680    2.00000
  105    -26.84680    2.00000
  106    -26.84667    2.00000
  107    -26.83298    2.00000
  108    -26.83265    2.00000
  109    -26.83213    2.00000
  110    -26.82536    2.00000
  111    -26.82532    2.00000
  112    -26.82199    2.00000
  113    -26.82185    2.00000
  114    -26.82176    2.00000
  115    -26.82160    2.00000
  116    -26.82081    2.00000
  117    -26.82068    2.00000
  118    -26.82052    2.00000
  119    -26.82036    2.00000
  120    -26.81835    2.00000
  121    -26.81830    2.00000
  122    -26.81695    2.00000
  123    -26.81667    2.00000
  124    -26.81559    2.00000
  125    -26.81550    2.00000
  126    -26.81459    2.00000
  127    -26.81450    2.00000
  128    -26.78621    2.00000
  129    -26.78616    2.00000
  130    -26.78574    2.00000
  131    -26.78573    2.00000
  132    -26.78557    2.00000
  133    -26.78528    2.00000
  134    -26.77427    2.00000
  135    -26.77420    2.00000
  136    -26.77378    2.00000
  137    -26.77378    2.00000
  138    -26.77364    2.00000
  139    -26.77334    2.00000
  140    -26.76844    2.00000
  141    -26.76773    2.00000
  142    -26.76047    2.00000
  143    -26.75976    2.00000
  144     -7.19175    2.00000
  145     -6.71816    2.00000
  146     -5.87506    2.00000
  147     -5.69789    2.00000
  148     -5.69780    2.00000
  149     -5.69014    2.00000
  150     -5.69014    2.00000
  151     -5.69013    2.00000
  152     -5.69004    2.00000
  153     -5.28403    2.00000
  154     -5.28400    2.00000
  155     -5.27313    2.00000
  156     -5.27306    2.00000
  157     -5.27301    2.00000
  158     -5.27300    2.00000
  159     -4.91548    2.00000
  160     -4.51443    2.00000
  161     -4.51439    2.00000
  162     -4.51324    2.00000
  163     -4.51315    2.00000
  164     -4.51307    2.00000
  165     -4.51306    2.00000
  166     -3.64561    2.00000
  167     -3.64546    2.00000
  168     -3.63940    2.00000
  169     -3.63924    2.00000
  170     -3.63910    2.00000
  171     -3.63909    2.00000
  172     -3.55514    2.00000
  173     -3.55495    2.00000
  174     -3.55493    2.00000
  175     -3.55478    2.00000
  176     -3.50335    2.00000
  177     -3.49414    2.00000
  178     -3.46207    2.00000
  179     -3.33284    2.00000

Fermi level: inf

