
  ___ ___ ___ _ _ _  
 |   |   |_  | | | | 
 | | | | | . | | | | 
 |__ |  _|___|_____|  22.8.0
 |___|_|             

User:   vazumah@c14.hercules
Date:   Mon Jan 30 02:52:09 2023
Arch:   x86_64
Pid:    5408
CWD:    /home/vazumah/Python_projects/LiNRR/autocad_start/slab_experiments/free_slabs_big_vacuum/Ba/bcc110/substrate
Python: 3.10.8
gpaw:   /home/vazumah/.conda/envs/GPAW/lib/python3.10/site-packages/gpaw
_gpaw:  /home/vazumah/.conda/envs/GPAW/lib/python3.10/site-packages/
        _gpaw.cpython-310-x86_64-linux-gnu.so
ase:    /home/vazumah/.conda/envs/GPAW/lib/python3.10/site-packages/ase (version 3.22.1)
numpy:  /home/vazumah/.conda/envs/GPAW/lib/python3.10/site-packages/numpy (version 1.24.1)
scipy:  /home/vazumah/.conda/envs/GPAW/lib/python3.10/site-packages/scipy (version 1.10.0)
libxc:  5.2.3
units:  Angstrom and eV
cores: 24
OpenMP: True
OMP_NUM_THREADS: 1

Reading from output.gpw
Reading input parameters:
  eigensolver: {name: dav,
                niter: 3}
  h: 0.16
  kpts: {size: [2, 1, 1]}
  maxiter: 999
  mixer: {backend: pulay,
          beta: 0.02,
          method: separate,
          nmaxold: 5,
          weight: 100}
  occupations: {name: fermi-dirac,
                width: 0.05}
  poissonsolver: {dipolelayer: xy}
  xc: BEEF-vdW

Initialize ...

species:
  Ba:
    name: Barium
    id: 3c0c69fceb001740075f2c7491402c79
    Z: 56.0
    valence: 10
    core: 46
    charge: 0.0
    file: /home/vazumah/.conda/envs/GPAW/share/gpaw/Ba.PBE.gz
    compensation charges: {type: gauss,
                           rc: 0.37,
                           lmax: 2}
    cutoffs: {filter: 2.06,
              core: 2.33}
    valence states:
      #              energy  rcut
      - 5s(2.00)   -33.644   1.164
      - 6s(2.00)    -3.229   1.164
      - 5p(6.00)   -18.744   1.164
      -  p           0.000   1.164
      -  d           0.000   1.164
      -  d          27.211   1.164
  
    # Using partial waves for Ba as LCAO basis

Reference energy: -7966002.330397  # eV

Spin-paired calculation

Convergence criteria:
 Maximum [total energy] change in last 3 cyles: 0.0005 eV / electron
 Maximum integral of absolute [dens]ity change: 0.0001 electrons / valence electron
 Maximum integral of absolute [eigenst]ate change: 4e-08 eV^2 / valence electron
 Maximum number of scf [iter]ations: 999
 (Square brackets indicate name in SCF output, whereas a 'c' in
 the SCF output indicates the quantity has converged.)

Symmetries present (total): 4

  ( 1  0  0)  ( 1  0  0)  (-1  0  0)  (-1  0  0)
  ( 1 -1  0)  ( 0  1  0)  ( 0 -1  0)  (-1  1  0)
  ( 0  0  1)  ( 0  0  1)  ( 0  0  1)  ( 0  0  1)
Note: your k-points are not as symmetric as your crystal!

2 k-points: 2 x 1 x 1 Monkhorst-Pack grid
1 k-point in the irreducible part of the Brillouin zone
       k-points in crystal coordinates                weights
   0:     0.25000000    0.00000000    0.00000000          2/2

Wave functions: Uniform real-space grid
  Kinetic energy operator: 8*3+1=25 point O(h^6) finite-difference Laplacian
  ScaLapack parameters: grid=1x1, blocksize=None
  Wavefunction extrapolation:
    Improved wavefunction reuse through dual PAW basis 

Occupation numbers: Fermi-Dirac:
  width: 0.0500  # eV
 

Eigensolver
   Davidson(niter=3) 

Densities:
  Coarse grid: 80*80*192 grid
  Fine grid: 160*160*384 grid
  Total Charge: 0.000000 

Density mixing:
  Method: separate
  Backend: pulay
  Linear mixing parameter: 0.02
  old densities: 5
  Damping of long wavelength oscillations: 100 

Hamiltonian:
  XC and Coulomb potentials evaluated on a 160*160*384 grid
  Using the BEEF-vdW Exchange-Correlation functional
  Interpolation: tri-quintic (5. degree polynomial)
  Poisson solver: FastPoissonSolver using
    Stencil: 8*3+1=25 point O(h^6) finite-difference Laplacian
    FFT axes: [0, 1]
    FST axes: [2]

Dipole correction along z-axis 

XC parameters: BEEF-vdW with 2 nearest neighbor stencil

Memory estimate:
  Process memory now: 119.15 MiB
  Calculator: 315.32 MiB
    Density: 24.81 MiB
      Arrays: 9.99 MiB
      Localized functions: 11.04 MiB
      Mixer: 3.78 MiB
    Hamiltonian: 7.36 MiB
      Arrays: 6.53 MiB
      XC: 0.00 MiB
      Poisson: 0.00 MiB
      vbar: 0.83 MiB
    Wavefunctions: 283.14 MiB
      Arrays psit_nG: 136.23 MiB
      Eigensolver: 144.96 MiB
      Projections: 0.07 MiB
      Projectors: 1.88 MiB

Total number of cores used: 24
Domain decomposition: 2 x 2 x 6

Number of atoms: 36
Number of atomic orbitals: 180
Number of bands in calculation: 180
Number of valence electrons: 360
Bands to converge: occupied

... initialized

Initializing position-dependent things.

Creating initial wave functions:
  180 bands from LCAO basis set

                                                            
                                                            
                                                            
                                                            
                                                            
                                                            
                        Ba          Ba           Ba         
                                                            
                Ba        BaBa        BaBa         Ba       
                                                            
       Ba         BaBa        BaBa        Ba                
                                                            
         Ba           Ba          Ba                        
                                                            
                                                            
                        Ba          Ba           Ba         
                                                            
                Ba        BaBa        BaBa         Ba       
                                                            
       Ba         BaBa        BaBa        Ba                
                                                            
         Ba           Ba          Ba                        
                                                            
                                                            
                                                            
                                                            
                                                            
                                                            

Positions:
   0 Ba     0.000000    3.549676   10.000000    ( 0.0000,  0.0000,  0.0000)
   1 Ba     5.020000    3.549676   10.000000    ( 0.0000,  0.0000,  0.0000)
   2 Ba    10.040000    3.549676   10.000000    ( 0.0000,  0.0000,  0.0000)
   3 Ba     2.510000    7.099352   10.000000    ( 0.0000,  0.0000,  0.0000)
   4 Ba     7.530000    7.099352   10.000000    ( 0.0000,  0.0000,  0.0000)
   5 Ba    12.550000    7.099352   10.000000    ( 0.0000,  0.0000,  0.0000)
   6 Ba     5.020000   10.649028   10.000000    ( 0.0000,  0.0000,  0.0000)
   7 Ba    10.040000   10.649028   10.000000    ( 0.0000,  0.0000,  0.0000)
   8 Ba    15.060000   10.649028   10.000000    ( 0.0000,  0.0000,  0.0000)
   9 Ba     0.000000    0.000000   13.549676    ( 0.0000,  0.0000,  0.0000)
  10 Ba     5.020000    0.000000   13.549676    ( 0.0000,  0.0000,  0.0000)
  11 Ba    10.040000    0.000000   13.549676    ( 0.0000,  0.0000,  0.0000)
  12 Ba     2.510000    3.549676   13.549676    ( 0.0000,  0.0000,  0.0000)
  13 Ba     7.530000    3.549676   13.549676    ( 0.0000,  0.0000,  0.0000)
  14 Ba    12.550000    3.549676   13.549676    ( 0.0000,  0.0000,  0.0000)
  15 Ba     5.020000    7.099352   13.549676    ( 0.0000,  0.0000,  0.0000)
  16 Ba    10.040000    7.099352   13.549676    ( 0.0000,  0.0000,  0.0000)
  17 Ba    15.060000    7.099352   13.549676    ( 0.0000,  0.0000,  0.0000)
  18 Ba     0.000000    3.549676   17.099352    ( 0.0000,  0.0000,  0.0000)
  19 Ba     5.020000    3.549676   17.099352    ( 0.0000,  0.0000,  0.0000)
  20 Ba    10.040000    3.549676   17.099352    ( 0.0000,  0.0000,  0.0000)
  21 Ba     2.510000    7.099352   17.099352    ( 0.0000,  0.0000,  0.0000)
  22 Ba     7.530000    7.099352   17.099352    ( 0.0000,  0.0000,  0.0000)
  23 Ba    12.550000    7.099352   17.099352    ( 0.0000,  0.0000,  0.0000)
  24 Ba     5.020000   10.649028   17.099352    ( 0.0000,  0.0000,  0.0000)
  25 Ba    10.040000   10.649028   17.099352    ( 0.0000,  0.0000,  0.0000)
  26 Ba    15.060000   10.649028   17.099352    ( 0.0000,  0.0000,  0.0000)
  27 Ba     0.000000    0.000000   20.649028    ( 0.0000,  0.0000,  0.0000)
  28 Ba     5.020000    0.000000   20.649028    ( 0.0000,  0.0000,  0.0000)
  29 Ba    10.040000    0.000000   20.649028    ( 0.0000,  0.0000,  0.0000)
  30 Ba     2.510000    3.549676   20.649028    ( 0.0000,  0.0000,  0.0000)
  31 Ba     7.530000    3.549676   20.649028    ( 0.0000,  0.0000,  0.0000)
  32 Ba    12.550000    3.549676   20.649028    ( 0.0000,  0.0000,  0.0000)
  33 Ba     5.020000    7.099352   20.649028    ( 0.0000,  0.0000,  0.0000)
  34 Ba    10.040000    7.099352   20.649028    ( 0.0000,  0.0000,  0.0000)
  35 Ba    15.060000    7.099352   20.649028    ( 0.0000,  0.0000,  0.0000)

Unit cell:
           periodic     x           y           z      points  spacing
  1. axis:    yes   15.060000    0.000000    0.000000    80     0.1537
  2. axis:    yes    7.530000   10.649028    0.000000    80     0.1331
  3. axis:    no     0.000000    0.000000   30.649028   192     0.1596

  Lengths:  15.060000  13.042343  30.649028
  Angles:   90.000000  90.000000  54.735610

Effective grid spacing dv^(1/3) = 0.1587

     iter     time        total  log10-change:
                         energy  eigst   dens
iter:   1 03:01:50 -6767.084875  +0.84
iter:   2 03:10:57 -6779.867006  +0.82  -1.35
iter:   3 03:20:01 -6788.146231  +0.41  -1.41
iter:   4 03:28:57 -6792.399834  +0.34  -1.55
Writing to output.gpw (mode='')

iter:   5 03:37:58 -6795.386345  +0.02  -1.73
iter:   6 03:46:57 -6797.266308  +0.01  -1.90
iter:   7 03:55:47 -6797.823936  -0.27  -1.89
iter:   8 04:04:40 -6799.187187  -0.56  -1.97
iter:   9 04:13:35 -6800.034263  -0.34  -1.95
Writing to output.gpw (mode='')

iter:  10 04:22:20 -6799.403259  -0.67  -1.84
iter:  11 04:31:16 -6799.763924  -0.74  -2.04
iter:  12 04:40:01 -6800.167389  -0.64  -2.20
iter:  13 04:48:45 -6800.177182  -0.93  -2.21
iter:  14 04:57:37 -6800.324439c -1.11  -2.37
Writing to output.gpw (mode='')

iter:  15 05:06:18 -6800.543558  -1.08  -2.39
iter:  16 05:15:06 -6800.800436  -1.12  -2.42
iter:  17 05:23:49 -6800.917161  -1.22  -2.29
iter:  18 05:32:36 -6801.068513  -1.30  -2.26
iter:  19 05:41:10 -6801.007438c -1.25  -2.20
Writing to output.gpw (mode='')

iter:  20 05:50:03 -6801.071813c -1.54  -2.33
iter:  21 05:59:08 -6801.191409  -1.45  -2.35
iter:  22 06:08:07 -6801.284165  -1.66  -2.32
iter:  23 06:17:00 -6801.280633c -1.55  -2.26
iter:  24 06:25:56 -6801.285068c -1.74  -2.33
Writing to output.gpw (mode='')

iter:  25 06:34:49 -6801.318599c -1.70  -2.48
iter:  26 06:43:44 -6801.366231c -1.83  -2.53
iter:  27 06:52:44 -6801.398923c -1.65  -2.59
iter:  28 07:01:37 -6801.435584c -1.87  -2.62
iter:  29 07:10:34 -6801.474662c -1.83  -2.64
Writing to output.gpw (mode='')

iter:  30 07:19:20 -6801.494226c -2.06  -2.63
iter:  31 07:28:00 -6801.552205c -1.87  -2.62
iter:  32 07:36:49 -6801.557310c -2.01  -2.51
iter:  33 07:46:00 -6801.553328c -2.05  -2.55
iter:  34 07:55:19 -6801.554896c -2.09  -2.64
Writing to output.gpw (mode='')

iter:  35 08:04:21 -6801.571783c -1.94  -2.83
iter:  36 08:13:13 -6801.595328c -2.00  -2.98
iter:  37 08:21:49 -6801.612251c -2.09  -3.01
iter:  38 08:31:05 -6801.633223c -2.18  -2.95
iter:  39 08:40:06 -6801.652396c -2.03  -2.83
Writing to output.gpw (mode='')

iter:  40 08:48:47 -6801.667882c -2.26  -2.72
iter:  41 08:57:53 -6801.680269c -2.25  -2.64
iter:  42 09:06:39 -6801.690365c -2.15  -2.58
iter:  43 09:15:25 -6801.714886c -2.36  -2.51
iter:  44 09:24:26 -6801.719189c -2.27  -2.44
Writing to output.gpw (mode='')

iter:  45 09:33:31 -6801.731154c -2.42  -2.41
iter:  46 09:42:17 -6801.732101c -2.47  -2.38
iter:  47 09:51:15 -6801.737072c -2.56  -2.37
iter:  48 10:00:06 -6801.803995c -2.21  -2.35
iter:  49 10:08:46 -6801.726345c -2.45  -2.24
Writing to output.gpw (mode='')

iter:  50 10:17:31 -6801.716735c -2.56  -2.27
iter:  51 10:26:12 -6801.728485c -2.83  -2.30
iter:  52 10:34:55 -6801.715256c -2.66  -2.30
iter:  53 10:43:37 -6801.689617c -2.03  -2.33
iter:  54 10:52:34 -6801.711727c -2.08  -2.56
Writing to output.gpw (mode='')

iter:  55 11:01:20 -6801.724009c -2.75  -2.65
iter:  56 11:10:21 -6801.726707c -2.72  -2.72
iter:  57 11:19:34 -6801.725485c -2.94  -2.71
iter:  58 11:28:36 -6801.753790c -2.26  -2.75
iter:  59 11:37:46 -6801.760759c -2.25  -2.71
Writing to output.gpw (mode='')

iter:  60 11:46:50 -6801.879452c -1.89  -2.66
iter:  61 11:55:30 -6801.828385c -2.04  -2.33
iter:  62 12:04:11 -6801.820639c -2.53  -2.31
iter:  63 12:13:03 -6801.784107c -2.67  -2.29
iter:  64 12:22:01 -6801.828131c -2.93  -2.30
Writing to output.gpw (mode='')

iter:  65 12:30:44 -6801.927688c -2.17  -2.26
iter:  66 12:39:40 -6801.668487  -1.94  -2.17
iter:  67 12:48:39 -6801.680116  -1.79  -2.33
iter:  68 12:57:33 -6801.731364c -1.83  -2.46
iter:  69 13:06:35 -6801.741858c -2.69  -2.56
Writing to output.gpw (mode='')

iter:  70 13:15:24 -6801.753279c -2.87  -2.61
iter:  71 13:24:15 -6801.756611c -3.12  -2.59
iter:  72 13:33:07 -6801.766570c -2.80  -2.62
iter:  73 13:42:00 -6801.767467c -2.81  -2.61
iter:  74 13:50:45 -6801.763973c -2.95  -2.58
Writing to output.gpw (mode='')

iter:  75 13:59:35 -6801.742610c -2.88  -2.58
iter:  76 14:08:27 -6801.747434c -2.79  -2.74
iter:  77 14:17:34 -6801.748399c -2.95  -2.81
iter:  78 14:26:20 -6801.751434c -2.66  -2.84
iter:  79 14:35:15 -6801.755163c -3.20  -2.85
Writing to output.gpw (mode='')

iter:  80 14:44:20 -6801.758671c -3.23  -2.91
iter:  81 14:53:09 -6801.757355c -3.27  -2.90
iter:  82 15:01:57 -6801.757911c -3.31  -2.93
iter:  83 15:10:53 -6801.755867c -3.24  -2.98
iter:  84 15:19:41 -6801.756852c -3.00  -3.08
Writing to output.gpw (mode='')

iter:  85 15:28:26 -6801.758068c -3.07  -3.08
iter:  86 15:37:15 -6801.759390c -3.13  -3.09
iter:  87 15:46:14 -6801.760503c -3.33  -3.10
iter:  88 15:55:10 -6801.761735c -3.50  -3.11
iter:  89 16:04:12 -6801.762982c -3.16  -3.09
Writing to output.gpw (mode='')

iter:  90 16:13:17 -6801.766769c -3.09  -3.15
iter:  91 16:22:13 -6801.769879c -2.98  -3.11
iter:  92 16:31:20 -6801.770264c -2.99  -3.05
iter:  93 16:40:18 -6801.792505c -2.46  -3.02
iter:  94 16:49:08 -6801.795940c -2.71  -2.78
Writing to output.gpw (mode='')

iter:  95 16:58:12 -6801.817520c -2.55  -2.76
iter:  96 17:07:11 -6801.820997c -2.47  -2.65
iter:  97 17:16:06 -6801.821629c -2.54  -2.60
iter:  98 17:25:09 -6801.832254c -2.64  -2.60
iter:  99 17:33:58 -6801.848125c -2.18  -2.58
Writing to output.gpw (mode='')

iter: 100 17:42:49 -6801.886160c -2.44  -2.55
iter: 101 17:51:22 -6801.898326c -1.72  -2.48
iter: 102 18:00:26 -6801.930511c -1.91  -2.67
iter: 103 18:09:13 -6801.959089c -1.89  -2.67
iter: 104 18:18:01 -6802.033438c -1.81  -2.68
Writing to output.gpw (mode='')

iter: 105 18:26:50 -6802.052982c -2.05  -2.59
iter: 106 18:35:36 -6802.204872c -1.54  -2.63
iter: 107 18:44:33 -6802.227986c -1.90  -2.49
iter: 108 18:53:31 -6802.290731c -2.02  -2.48
iter: 109 19:02:38 -6802.332486c -1.75  -2.42
Writing to output.gpw (mode='')

iter: 110 19:11:42 -6802.410289c -1.94  -2.42
iter: 111 19:20:44 -6802.453888c -1.80  -2.36
iter: 112 19:29:32 -6802.427715c -2.10  -2.33
iter: 113 19:38:10 -6802.484672c -2.20  -2.35
iter: 114 19:46:58 -6802.533977c -1.68  -2.32
Writing to output.gpw (mode='')

iter: 115 19:55:55 -6802.539434c -2.04  -2.40
iter: 116 20:04:43 -6802.549585c -2.26  -2.41
iter: 117 20:13:54 -6802.575212c -2.29  -2.41
iter: 118 20:22:28 -6802.563967c -2.56  -2.38
iter: 119 20:31:30 -6802.564750c -2.34  -2.40
Writing to output.gpw (mode='')

iter: 120 20:40:32 -6802.567574c -2.51  -2.41
iter: 121 20:49:18 -6802.573444c -2.41  -2.43
iter: 122 20:58:06 -6802.604531c -2.23  -2.54
iter: 123 21:06:42 -6802.610707c -2.27  -2.57
iter: 124 21:15:32 -6802.803199  -1.84  -2.52
Writing to output.gpw (mode='')

iter: 125 21:24:16 -6802.842388  -1.67  -2.22
iter: 126 21:32:49 -6802.838317c -2.03  -2.17
iter: 127 21:41:53 -6802.821820c -1.99  -2.13
iter: 128 21:50:46 -6802.767102c -2.33  -2.11
iter: 129 21:59:27 -6803.079832  -1.95  -2.10
Writing to output.gpw (mode='')

iter: 130 22:08:04 -6803.085420  -1.75  -1.97
iter: 131 22:16:46 -6803.047482c -2.18  -1.96
iter: 132 22:25:37 -6803.145091c -1.89  -1.93
iter: 133 22:34:26 -6803.134328c -1.74  -1.91
iter: 134 22:43:15 -6803.785600  -1.76  -1.90
Writing to output.gpw (mode='')

iter: 135 22:52:06 -6802.007424  -1.18  -1.80
iter: 136 23:00:45 -6802.708253  -1.47  -1.96
iter: 137 23:10:04 -6803.103127  -1.59  -1.95
iter: 138 23:18:55 -6802.419047  -1.51  -1.89
iter: 139 23:27:28 -6803.523359  -0.59  -1.96
Writing to output.gpw (mode='')

iter: 140 23:36:26 -6802.992261  -0.71  -1.99
iter: 141 23:45:36 -6802.375037  -1.27  -2.02
iter: 142 23:54:22 -6802.503030  -1.11  -2.40
iter: 143 00:03:24 -6802.571098  -1.55  -2.47
iter: 144 00:12:07 -6802.644042c -1.52  -2.48
Writing to output.gpw (mode='')

iter: 145 00:21:21 -6802.635157c -1.92  -2.49
iter: 146 00:30:20 -6803.082662  -1.63  -2.46
iter: 147 00:39:27 -6802.751325  -2.01  -2.06
iter: 148 00:48:41 -6802.634538  -2.67  -2.09
iter: 149 00:57:57 -6802.602884c -2.29  -2.13
Writing to output.gpw (mode='')

iter: 150 01:07:06 -6802.891323  -2.33  -2.15
iter: 151 01:15:57 -6803.063591  -1.86  -2.08
iter: 152 01:25:03 -6802.873582  -0.89  -2.00
iter: 153 01:34:14 -6802.890782  -1.00  -2.16
iter: 154 01:43:19 -6802.549483  -1.59  -2.17
Writing to output.gpw (mode='')

iter: 155 01:52:01 -6802.596043  -1.51  -2.57
iter: 156 02:01:16 -6802.618247c -1.94  -2.58
iter: 157 02:09:57 -6802.625574c -2.09  -2.56
iter: 158 02:18:43 -6802.602667c -2.61  -2.54
iter: 159 02:27:40 -6802.621258c -2.86  -2.62
Writing to output.gpw (mode='')

iter: 160 02:36:34 -6802.642351c -2.45  -2.61
iter: 161 02:45:32 -6802.646382c -2.60  -2.55
iter: 162 02:54:46 -6802.621418c -2.80  -2.51
iter: 163 03:03:55 -6802.626920c -2.45  -2.51
iter: 164 03:13:04 -6802.612742c -2.55  -2.47
Writing to output.gpw (mode='')

iter: 165 03:22:30 -6802.600916c -2.76  -2.51
iter: 166 03:31:51 -6802.646318c -2.39  -2.64
iter: 167 03:41:19 -6802.622748c -2.30  -2.55
iter: 168 03:50:45 -6802.602194c -2.27  -2.55
iter: 169 03:59:48 -6802.606709c -2.43  -2.76
Writing to output.gpw (mode='')

iter: 170 04:09:02 -6802.608306c -3.35  -2.80
iter: 171 04:18:13 -6802.619627c -3.04  -2.83
iter: 172 04:27:18 -6802.612587c -3.30  -2.79
iter: 173 04:36:09 -6802.618995c -3.31  -2.78
iter: 174 04:45:28 -6802.620104c -3.21  -2.72
Writing to output.gpw (mode='')

iter: 175 04:54:24 -6802.624160c -3.37  -2.72
iter: 176 05:03:21 -6802.624564c -3.14  -2.67
iter: 177 05:12:17 -6802.618011c -3.05  -2.59
iter: 178 05:21:06 -6802.621781c -3.00  -2.61
iter: 179 05:30:17 -6802.607348c -2.76  -2.58
Writing to output.gpw (mode='')

iter: 180 05:39:17 -6802.617777c -3.04  -2.73
iter: 181 05:48:31 -6802.651666c -2.71  -2.67
iter: 182 05:57:35 -6802.715729c -1.95  -2.50
iter: 183 06:06:30 -6802.758271c -2.00  -2.35
iter: 184 06:15:22 -6802.726321c -2.11  -2.28
Writing to output.gpw (mode='')

iter: 185 06:24:18 -6802.573576  -2.29  -2.24
iter: 186 06:33:21 -6802.595339c -2.55  -2.49
iter: 187 06:42:00 -6802.600390c -2.99  -2.53
iter: 188 06:50:47 -6802.609075c -3.10  -2.56
iter: 189 06:59:43 -6802.674392c -2.10  -2.57
Writing to output.gpw (mode='')

iter: 190 07:08:29 -6802.639877c -2.38  -2.50
iter: 191 07:17:08 -6802.667678c -1.94  -2.52
iter: 192 07:26:06 -6802.684337c -1.76  -2.59
iter: 193 07:34:57 -6802.688338c -2.27  -2.52
iter: 194 07:43:46 -6802.681061c -2.19  -2.45
Writing to output.gpw (mode='')

iter: 195 07:52:33 -6802.588733c -2.53  -2.41
iter: 196 08:01:35 -6802.591240c -2.55  -2.69
iter: 197 08:10:32 -6802.599991c -2.77  -2.79
iter: 198 08:19:22 -6802.602543c -2.96  -2.84
iter: 199 08:28:09 -6802.604765c -2.86  -2.94
Writing to output.gpw (mode='')

iter: 200 08:37:04 -6802.607255c -2.86  -3.00
iter: 201 08:45:51 -6802.608894c -3.08  -3.12
iter: 202 08:54:49 -6802.609247c -3.54  -3.15
iter: 203 09:03:43 -6802.609455c -4.01  -3.14
iter: 204 09:12:38 -6802.609789c -3.93  -3.14
Writing to output.gpw (mode='')

iter: 205 09:21:40 -6802.609712c -4.11  -3.13
iter: 206 09:30:40 -6802.609814c -4.13  -3.13
iter: 207 09:39:27 -6802.617928c -3.42  -3.13
iter: 208 09:48:27 -6802.617279c -3.22  -2.87
iter: 209 09:57:09 -6802.612636c -3.77  -2.85
Writing to output.gpw (mode='')

iter: 210 10:06:01 -6802.607110c -3.53  -2.91
iter: 211 10:14:59 -6802.611064c -3.83  -3.15
iter: 212 10:24:02 -6802.609140c -3.59  -3.12
iter: 213 10:32:56 -6802.609818c -3.30  -3.24
iter: 214 10:41:52 -6802.610438c -3.73  -3.24
Writing to output.gpw (mode='')

iter: 215 10:50:45 -6802.612756c -3.37  -3.25
iter: 216 10:59:30 -6802.611413c -3.53  -3.15
iter: 217 11:08:18 -6802.611311c -4.27  -3.16
iter: 218 11:17:14 -6802.610913c -4.11  -3.15
iter: 219 11:25:59 -6802.610656c -4.46  -3.15
Writing to output.gpw (mode='')

iter: 220 11:34:51 -6802.610955c -4.37  -3.18
iter: 221 11:44:06 -6802.610490c -4.36  -3.15
iter: 222 11:53:05 -6802.609965c -4.16  -3.20
iter: 223 12:02:00 -6802.610265c -3.70  -3.25
iter: 224 12:10:41 -6802.610746c -3.49  -3.38
Writing to output.gpw (mode='')

iter: 225 12:19:26 -6802.611413c -3.63  -3.37
iter: 226 12:28:28 -6802.611685c -3.68  -3.31
iter: 227 12:37:20 -6802.611804c -3.90  -3.28
iter: 228 12:46:17 -6802.612074c -3.94  -3.22
iter: 229 12:55:12 -6802.612601c -4.07  -3.18
Writing to output.gpw (mode='')

iter: 230 13:04:07 -6802.614318c -3.77  -3.13
iter: 231 13:12:52 -6802.612080c -4.20  -3.05
iter: 232 13:21:54 -6802.612382c -4.61  -3.05
iter: 233 13:30:48 -6802.610806c -4.47  -3.04
iter: 234 13:39:31 -6802.621365c -3.53  -3.06
Writing to output.gpw (mode='')

iter: 235 13:48:41 -6802.604872c -3.18  -2.82
iter: 236 13:57:35 -6802.614854c -4.01  -2.95
iter: 237 14:06:18 -6802.616308c -4.13  -2.89
iter: 238 14:15:04 -6802.613257c -4.14  -2.87
iter: 239 14:23:44 -6802.660211c -2.68  -2.87
Writing to output.gpw (mode='')

iter: 240 14:32:26 -6802.660644c -2.74  -2.43
iter: 241 14:41:16 -6802.603790c -3.15  -2.42
iter: 242 14:50:09 -6802.609347c -3.27  -2.50
iter: 243 14:59:00 -6802.590446c -2.97  -2.52
iter: 244 15:07:52 -6802.594185c -2.09  -2.71
Writing to output.gpw (mode='')

iter: 245 15:16:41 -6802.612007c -2.02  -2.94
iter: 246 15:25:47 -6802.608280c -2.53  -2.96
iter: 247 15:34:22 -6802.607977c -3.07  -3.16
iter: 248 15:43:09 -6802.608792c -3.36  -3.27
iter: 249 15:51:46 -6802.608725c -3.66  -3.33
Writing to output.gpw (mode='')

iter: 250 16:00:35 -6802.610516c -3.37  -3.41
iter: 251 16:09:24 -6802.610427c -3.57  -3.43
iter: 252 16:18:24 -6802.610266c -3.97  -3.38
iter: 253 16:27:24 -6802.613669c -3.75  -3.34
iter: 254 16:36:12 -6802.612802c -3.69  -3.08
Writing to output.gpw (mode='')

iter: 255 16:44:57 -6802.613925c -4.04  -3.05
iter: 256 16:53:45 -6802.609103c -4.08  -2.99
iter: 257 17:02:23 -6802.608105c -3.99  -3.08
iter: 258 17:11:19 -6802.609008c -3.97  -3.19
iter: 259 17:20:10 -6802.609553c -3.58  -3.23
Writing to output.gpw (mode='')

iter: 260 17:29:18 -6802.610543c -3.21  -3.54
iter: 261 17:38:15 -6802.610525c -3.59  -3.49
iter: 262 17:47:01 -6802.609981c -4.14  -3.47
iter: 263 17:55:55 -6802.609860c -4.42  -3.55
iter: 264 18:04:39 -6802.609909c -4.42  -3.60
Writing to output.gpw (mode='')

iter: 265 18:12:40 -6802.609959c -4.57  -3.63
iter: 266 18:21:39 -6802.610002c -4.50  -3.65
iter: 267 18:30:29 -6802.610068c -4.57  -3.71
iter: 268 18:39:24 -6802.610128c -4.76  -3.72
iter: 269 18:48:04 -6802.610540c -4.41  -3.69
Writing to output.gpw (mode='')

iter: 270 18:57:10 -6802.610835c -4.06  -3.58
iter: 271 19:05:51 -6802.610918c -4.38  -3.47
iter: 272 19:14:51 -6802.610304c -4.97  -3.41
iter: 273 19:23:54 -6802.610038c -5.22  -3.45
iter: 274 19:33:05 -6802.610271c -4.89  -3.52
Writing to output.gpw (mode='')

iter: 275 19:41:57 -6802.610117c -4.38  -3.51
iter: 276 19:51:05 -6802.610302c -4.08  -3.67
iter: 277 20:00:11 -6802.610660c -4.07  -3.63
iter: 278 20:09:15 -6802.610243c -4.54  -3.54
iter: 279 20:18:23 -6802.610237c -4.47  -3.60
Writing to output.gpw (mode='')

iter: 280 20:27:37 -6802.610334c -4.37  -3.75
iter: 281 20:36:55 -6802.610179c -4.91  -3.75
iter: 282 20:45:59 -6802.610345c -4.72  -3.88
iter: 283 20:55:00 -6802.610286c -4.77  -3.84
iter: 284 21:04:09 -6802.610195c -5.22  -3.83
Writing to output.gpw (mode='')

iter: 285 21:13:01 -6802.610226c -5.03  -3.88
iter: 286 21:22:17 -6802.610385c -4.55  -3.83
iter: 287 21:31:18 -6802.610311c -4.84  -3.77
iter: 288 21:40:11 -6802.610209c -4.69  -3.78
iter: 289 21:49:27 -6802.610248c -4.66  -3.96
Writing to output.gpw (mode='')

iter: 290 21:58:36 -6802.610268c -4.85  -3.96
iter: 291 22:07:23 -6802.610283c -4.68  -3.95
iter: 292 22:16:15 -6802.610278c -4.87  -3.98
iter: 293 22:25:06 -6802.610316c -4.72  -3.97
iter: 294 22:33:53 -6802.610348c -4.67  -3.92
Writing to output.gpw (mode='')

iter: 295 22:43:00 -6802.610486c -4.73  -3.88
iter: 296 22:51:44 -6802.610320c -5.11  -3.74
iter: 297 23:00:47 -6802.610418c -5.48  -3.75
iter: 298 23:09:48 -6802.610328c -5.25  -3.67
iter: 299 23:18:37 -6802.610308c -4.39  -3.69
Writing to output.gpw (mode='')

iter: 300 23:27:53 -6802.610252c -4.93  -3.89
iter: 301 23:36:53 -6802.610255c -5.75  -3.92
iter: 302 23:45:58 -6802.610424c -4.93  -3.92
iter: 303 23:54:52 -6802.610248c -5.16  -3.76
iter: 304 00:03:44 -6802.610401c -4.44  -3.82
Writing to output.gpw (mode='')

iter: 305 00:12:29 -6802.610405c -4.44  -3.86
iter: 306 00:21:28 -6802.610305c -5.10  -3.81
iter: 307 00:30:32 -6802.610246c -5.95  -3.80
iter: 308 00:39:45 -6802.610201c -5.46  -3.84
iter: 309 00:48:56 -6802.612357c -4.06  -3.92
Writing to output.gpw (mode='')

iter: 310 00:57:50 -6802.611043c -4.37  -3.27
iter: 311 01:06:52 -6802.612276c -4.65  -3.28
iter: 312 01:15:43 -6802.609568c -4.06  -3.18
iter: 313 01:24:39 -6802.609984c -4.50  -3.31
iter: 314 01:33:54 -6802.609948c -3.89  -3.33
Writing to output.gpw (mode='')

iter: 315 01:42:37 -6802.610596c -4.08  -3.95
iter: 316 01:51:30 -6802.610643c -4.51  -3.69
iter: 317 02:00:27 -6802.610256c -5.29  -3.63
iter: 318 02:09:36 -6802.610183c -5.76  -3.68
iter: 319 02:18:32 -6802.612624c -3.77  -3.72
Writing to output.gpw (mode='')

iter: 320 02:27:41 -6802.609910c -4.03  -3.29
iter: 321 02:36:53 -6802.609731c -4.40  -3.43
iter: 322 02:45:45 -6802.610294c -4.69  -3.51
iter: 323 02:54:34 -6802.610325c -5.48  -3.52
iter: 324 03:03:28 -6802.610727c -4.02  -3.52
Writing to output.gpw (mode='')

iter: 325 03:12:16 -6802.610832c -3.91  -3.68
iter: 326 03:21:14 -6802.610752c -4.37  -3.62
iter: 327 03:30:19 -6802.610066c -4.32  -3.55
iter: 328 03:39:13 -6802.610137c -4.40  -3.99
iter: 329 03:48:17 -6802.610210c -4.49  -4.13c
Writing to output.gpw (mode='')

iter: 330 03:57:15 -6802.610232c -4.92  -4.19c
iter: 331 04:06:00 -6802.610235c -5.34  -4.21c
iter: 332 04:14:53 -6802.610231c -5.87  -4.25c
iter: 333 04:23:57 -6802.610286c -5.30  -4.36c
iter: 334 04:32:52 -6802.610251c -5.67  -4.14c
Writing to output.gpw (mode='')

iter: 335 04:41:26 -6802.610237c -6.46  -4.14c
iter: 336 04:50:21 -6802.610469c -5.04  -4.17c
iter: 337 04:59:08 -6802.610736c -4.56  -3.68
iter: 338 05:07:54 -6802.610639c -4.63  -3.55
iter: 339 05:16:37 -6802.610253c -5.33  -3.51
Writing to output.gpw (mode='')

iter: 340 05:25:28 -6802.610230c -5.66  -3.58
iter: 341 05:34:07 -6802.610587c -5.20  -3.60
iter: 342 05:42:52 -6802.610411c -5.51  -3.52
iter: 343 05:51:47 -6802.610165c -5.38  -3.52
iter: 344 06:00:33 -6802.610254c -5.62  -3.64
Writing to output.gpw (mode='')

iter: 345 06:09:37 -6802.610303c -6.18  -3.65
iter: 346 06:18:29 -6802.611912c -3.74  -3.64
iter: 347 06:27:09 -6802.609520c -3.91  -3.23
iter: 348 06:36:03 -6802.609605c -4.17  -3.38
iter: 349 06:44:58 -6802.609675c -4.24  -3.44
Writing to output.gpw (mode='')

iter: 350 06:54:04 -6802.609919c -4.49  -3.48
iter: 351 07:02:51 -6802.610977c -4.51  -3.55
iter: 352 07:11:53 -6802.610266c -5.24  -3.39
iter: 353 07:20:32 -6802.610754c -5.36  -3.43
iter: 354 07:29:20 -6802.610739c -5.03  -3.39
Writing to output.gpw (mode='')

iter: 355 07:38:08 -6802.618451c -3.14  -3.36
iter: 356 07:46:48 -6802.608659c -3.39  -2.93
iter: 357 07:55:51 -6802.609117c -3.84  -3.05
iter: 358 08:04:26 -6802.610856c -4.20  -3.08
iter: 359 08:13:02 -6802.611690c -5.00  -3.09
Writing to output.gpw (mode='')

iter: 360 08:21:58 -6802.609375c -3.53  -3.07
iter: 361 08:30:41 -6802.615017c -2.95  -3.57
iter: 362 08:39:25 -6802.611902c -3.23  -3.23
iter: 363 08:48:20 -6802.609603c -3.74  -3.25
iter: 364 08:57:18 -6802.609966c -3.87  -3.86
Writing to output.gpw (mode='')

iter: 365 09:06:15 -6802.610377c -4.60  -3.98
iter: 366 09:15:09 -6802.610220c -5.05  -3.76
iter: 367 09:23:55 -6802.610136c -5.02  -3.80
iter: 368 09:32:49 -6802.610256c -5.28  -3.96
iter: 369 09:41:52 -6802.610342c -4.53  -3.92
Writing to output.gpw (mode='')

iter: 370 09:50:40 -6802.610300c -4.90  -4.03c
iter: 371 09:59:44 -6802.610402c -5.12  -4.00c
iter: 372 10:08:33 -6802.610445c -4.89  -3.81
iter: 373 10:17:30 -6802.610713c -4.72  -3.76
iter: 374 10:26:28 -6802.610805c -4.44  -3.58
Writing to output.gpw (mode='')

iter: 375 10:35:44 -6802.610268c -5.31  -3.53
iter: 376 10:44:44 -6802.610296c -5.73  -3.60
iter: 377 10:53:39 -6802.610265c -5.80  -3.61
iter: 378 11:02:20 -6802.610130c -4.73  -3.64
iter: 379 11:11:13 -6802.610199c -4.94  -4.08c
Writing to output.gpw (mode='')

iter: 380 11:20:18 -6802.610213c -5.22  -4.16c
iter: 381 11:29:11 -6802.610235c -5.01  -4.40c
iter: 382 11:38:09 -6802.610238c -5.82  -4.39c
iter: 383 11:46:51 -6802.610241c -6.09  -4.42c
iter: 384 11:55:33 -6802.610250c -5.50  -4.46c
Writing to output.gpw (mode='')

iter: 385 12:04:31 -6802.610239c -5.76  -4.39c
iter: 386 12:13:22 -6802.610240c -6.47  -4.48c
iter: 387 12:22:09 -6802.610260c -5.79  -4.52c
iter: 388 12:30:57 -6802.610236c -5.92  -4.31c
iter: 389 12:39:52 -6802.610236c -6.03  -4.47c
Writing to output.gpw (mode='')

iter: 390 12:48:30 -6802.610240c -5.79  -4.55c
iter: 391 12:57:10 -6802.610242c -5.89  -4.55c
iter: 392 13:06:10 -6802.610242c -6.33  -4.55c
iter: 393 13:15:03 -6802.610242c -6.78  -4.56c
iter: 394 13:23:40 -6802.610248c -6.03  -4.58c
Writing to output.gpw (mode='')

iter: 395 13:32:31 -6802.610248c -5.90  -4.55c
iter: 396 13:41:43 -6802.610243c -6.77  -4.51c
iter: 397 13:50:55 -6802.610241c -7.27  -4.55c
iter: 398 13:59:50 -6802.610247c -6.64  -4.56c
iter: 399 14:08:40 -6802.610252c -6.34  -4.51c
Writing to output.gpw (mode='')

iter: 400 14:17:41 -6802.610251c -6.32  -4.41c
iter: 401 14:26:16 -6802.610245c -6.86  -4.36c
iter: 402 14:35:09 -6802.610245c -7.09  -4.37c
iter: 403 14:44:09 -6802.610241c -6.12  -4.39c
iter: 404 14:53:09 -6802.610254c -5.54  -4.57c
Writing to output.gpw (mode='')

iter: 405 15:02:12 -6802.610249c -5.68  -4.36c
iter: 406 15:11:10 -6802.610242c -6.51  -4.39c
iter: 407 15:20:10 -6802.610242c -6.57  -4.47c
iter: 408 15:29:05 -6802.610243c -6.90  -4.52c
iter: 409 15:37:52 -6802.610244c -7.07  -4.51c
Writing to output.gpw (mode='')

iter: 410 15:46:47 -6802.610247c -6.16  -4.50c
iter: 411 15:55:39 -6802.610245c -6.18  -4.58c
iter: 412 16:04:38 -6802.610241c -6.48  -4.58c
iter: 413 16:13:29 -6802.610242c -6.31  -4.75c
iter: 414 16:22:31 -6802.610243c -6.36  -4.82c
Writing to output.gpw (mode='')

iter: 415 16:31:20 -6802.610242c -6.89  -4.84c
iter: 416 16:39:55 -6802.610242c -7.12  -4.93c
iter: 417 16:48:41 -6802.610243c -6.94  -4.94c
iter: 418 16:57:44 -6802.610243c -6.90  -4.90c
iter: 419 17:06:51 -6802.610243c -7.33  -4.90c
Writing to output.gpw (mode='')

iter: 420 17:15:50 -6802.610243c -6.87  -4.89c
iter: 421 17:24:40 -6802.610243c -6.72  -4.97c
iter: 422 17:33:39 -6802.610243c -7.13  -4.94c
iter: 423 17:42:44 -6802.610243c -7.49c -4.97c

Converged after 423 iterations.

Dipole moment: (-70.114596, -47.146832, -0.000459) |e|*Ang

Energy contributions relative to reference atoms: (reference = -7966002.330397)

Kinetic:       +135.064015
Potential:      -52.190289
External:        +0.000000
XC:            -6878.602415
Entropy (-ST):   -0.000000
Local:           -6.881554
--------------------------
Free energy:   -6802.610243
Extrapolated:  -6802.610243

Dipole-layer corrected work functions: -inf, -inf eV

 Band  Eigenvalues  Occupancy
    0    -31.87605    2.00000
    1    -31.87564    2.00000
    2    -31.86707    2.00000
    3    -31.86666    2.00000
    4    -31.86142    2.00000
    5    -31.86099    2.00000
    6    -31.86011    2.00000
    7    -31.85972    2.00000
    8    -31.85805    2.00000
    9    -31.85764    2.00000
   10    -31.85482    2.00000
   11    -31.85440    2.00000
   12    -31.85233    2.00000
   13    -31.85194    2.00000
   14    -31.84702    2.00000
   15    -31.84660    2.00000
   16    -31.84571    2.00000
   17    -31.84533    2.00000
   18    -31.43233    2.00000
   19    -31.42061    2.00000
   20    -31.41421    2.00000
   21    -31.41190    2.00000
   22    -31.40961    2.00000
   23    -31.40906    2.00000
   24    -31.40683    2.00000
   25    -31.40559    2.00000
   26    -31.40280    2.00000
   27    -31.40131    2.00000
   28    -31.40058    2.00000
   29    -31.40043    2.00000
   30    -31.39926    2.00000
   31    -31.39725    2.00000
   32    -31.39663    2.00000
   33    -31.39199    2.00000
   34    -31.38631    2.00000
   35    -31.38467    2.00000
   36    -17.23076    2.00000
   37    -17.22708    2.00000
   38    -17.22616    2.00000
   39    -17.22404    2.00000
   40    -17.22263    2.00000
   41    -17.22211    2.00000
   42    -17.22086    2.00000
   43    -17.22036    2.00000
   44    -17.20680    2.00000
   45    -17.20633    2.00000
   46    -17.19669    2.00000
   47    -17.19535    2.00000
   48    -17.19361    2.00000
   49    -17.19000    2.00000
   50    -17.18952    2.00000
   51    -17.18687    2.00000
   52    -17.18570    2.00000
   53    -17.18271    2.00000
   54    -17.17650    2.00000
   55    -17.17560    2.00000
   56    -17.17453    2.00000
   57    -17.17417    2.00000
   58    -17.16802    2.00000
   59    -17.16604    2.00000
   60    -17.16442    2.00000
   61    -17.16394    2.00000
   62    -17.16385    2.00000
   63    -17.16170    2.00000
   64    -17.15938    2.00000
   65    -17.15764    2.00000
   66    -17.15303    2.00000
   67    -17.15262    2.00000
   68    -17.10978    2.00000
   69    -17.10730    2.00000
   70    -17.09465    2.00000
   71    -17.09165    2.00000
   72    -17.08854    2.00000
   73    -17.08724    2.00000
   74    -17.07475    2.00000
   75    -17.07435    2.00000
   76    -17.03404    2.00000
   77    -17.03363    2.00000
   78    -16.96412    2.00000
   79    -16.96236    2.00000
   80    -16.96171    2.00000
   81    -16.96035    2.00000
   82    -16.94927    2.00000
   83    -16.94635    2.00000
   84    -16.94141    2.00000
   85    -16.93853    2.00000
   86    -16.93368    2.00000
   87    -16.93118    2.00000
   88    -16.91576    2.00000
   89    -16.91535    2.00000
   90    -16.83776    2.00000
   91    -16.83740    2.00000
   92    -16.83538    2.00000
   93    -16.83374    2.00000
   94    -16.80326    2.00000
   95    -16.79217    2.00000
   96    -16.79191    2.00000
   97    -16.79152    2.00000
   98    -16.79065    2.00000
   99    -16.78537    2.00000
  100    -16.78249    2.00000
  101    -16.77922    2.00000
  102    -16.77762    2.00000
  103    -16.77688    2.00000
  104    -16.77147    2.00000
  105    -16.73709    2.00000
  106    -16.73643    2.00000
  107    -16.73630    2.00000
  108    -16.71894    2.00000
  109    -16.71853    2.00000
  110    -16.71612    2.00000
  111    -16.71458    2.00000
  112    -16.71168    2.00000
  113    -16.68450    2.00000
  114    -16.68327    2.00000
  115    -16.66391    2.00000
  116    -16.65944    2.00000
  117    -16.65768    2.00000
  118    -16.64201    2.00000
  119    -16.63663    2.00000
  120    -16.62902    2.00000
  121    -16.62185    2.00000
  122    -16.61998    2.00000
  123    -16.61002    2.00000
  124    -16.60196    2.00000
  125    -16.59975    2.00000
  126    -16.59709    2.00000
  127    -16.58837    2.00000
  128    -16.58085    2.00000
  129    -16.57568    2.00000
  130    -16.56961    2.00000
  131    -16.56604    2.00000
  132    -16.56271    2.00000
  133    -16.54126    2.00000
  134    -16.53852    2.00000
  135    -16.53344    2.00000
  136    -16.52886    2.00000
  137    -16.52516    2.00000
  138    -16.52473    2.00000
  139    -16.52073    2.00000
  140    -16.51523    2.00000
  141    -16.50820    2.00000
  142    -16.50053    2.00000
  143    -16.49648    2.00000
  144     -5.00676    2.00000
  145     -4.59166    2.00000
  146     -4.33805    2.00000
  147     -3.99437    2.00000
  148     -3.98807    2.00000
  149     -3.95650    2.00000
  150     -3.80139    2.00000
  151     -3.67006    2.00000
  152     -3.65960    2.00000
  153     -3.47943    2.00000
  154     -3.46463    2.00000
  155     -3.45663    2.00000
  156     -3.45092    2.00000
  157     -3.44379    2.00000
  158     -3.40553    2.00000
  159     -3.38993    2.00000
  160     -3.21987    2.00000
  161     -3.18276    2.00000
  162     -3.11273    2.00000
  163     -3.07165    2.00000
  164     -3.00063    2.00000
  165     -2.99036    2.00000
  166     -2.91088    2.00000
  167     -2.86994    2.00000
  168     -2.86287    2.00000
  169     -2.83340    2.00000
  170     -2.82389    2.00000
  171     -2.76928    2.00000
  172     -2.75535    2.00000
  173     -2.72308    2.00000
  174     -2.71544    2.00000
  175     -2.71249    2.00000
  176     -2.71036    2.00000
  177     -2.70446    2.00000
  178     -2.52897    2.00000
  179     -2.50936    2.00000

Fermi level: inf

Writing to output.gpw (mode='')


Forces in eV/Ang:
  0 Ba    0.00000   -0.00059    0.04661
  1 Ba   -0.00364   -0.00032    0.04765
  2 Ba    0.00364   -0.00032    0.04765
  3 Ba    0.00364    0.00032    0.04765
  4 Ba    0.00000    0.00059    0.04661
  5 Ba   -0.00364    0.00032    0.04765
  6 Ba   -0.00317    0.00000    0.04088
  7 Ba    0.00317    0.00000    0.04088
  8 Ba    0.00000    0.00000    0.04157
  9 Ba    0.00000    0.00000   -0.04820
 10 Ba   -0.00385    0.00000   -0.04360
 11 Ba    0.00385    0.00000   -0.04360
 12 Ba    0.00563   -0.00024   -0.05228
 13 Ba    0.00000   -0.00197   -0.04998
 14 Ba   -0.00563   -0.00024   -0.05228
 15 Ba   -0.00563    0.00024   -0.05228
 16 Ba    0.00563    0.00024   -0.05228
 17 Ba    0.00000    0.00197   -0.04998
 18 Ba    0.00000   -0.00105    0.05024
 19 Ba   -0.00510   -0.00086    0.05244
 20 Ba    0.00510   -0.00086    0.05244
 21 Ba    0.00510    0.00086    0.05244
 22 Ba    0.00000    0.00105    0.05024
 23 Ba   -0.00510    0.00086    0.05244
 24 Ba   -0.00478    0.00000    0.04413
 25 Ba    0.00478    0.00000    0.04413
 26 Ba    0.00000    0.00000    0.04848
 27 Ba    0.00000    0.00000   -0.04077
 28 Ba   -0.00180    0.00000   -0.04147
 29 Ba    0.00180    0.00000   -0.04147
 30 Ba    0.00443   -0.00012   -0.04735
 31 Ba    0.00000   -0.00133   -0.04720
 32 Ba   -0.00443   -0.00012   -0.04735
 33 Ba   -0.00443    0.00012   -0.04735
 34 Ba    0.00443    0.00012   -0.04735
 35 Ba    0.00000    0.00133   -0.04720

System changes: positions 

Initializing position-dependent things.

Density initialized from wave functions
                                                            
                                                            
                                                            
                                                            
                                                            
                                                            
                        Ba          Ba           Ba         
                                                            
                Ba        BaBa        BaBa         Ba       
                                                            
       Ba         BaBa        BaBa        Ba                
                                                            
         Ba           Ba          Ba                        
                                                            
                                                            
                        Ba          Ba           Ba         
                                                            
                Ba        BaBa        BaBa         Ba       
                                                            
       Ba         BaBa        BaBa        Ba                
                                                            
         Ba           Ba          Ba                        
                                                            
                                                            
                                                            
                                                            
                                                            
                                                            

Positions:
   0 Ba     0.000000    3.549668   10.000666    ( 0.0000,  0.0000,  0.0000)
   1 Ba     5.019948    3.549671   10.000681    ( 0.0000,  0.0000,  0.0000)
   2 Ba    10.040052    3.549671   10.000681    ( 0.0000,  0.0000,  0.0000)
   3 Ba     2.510052    7.099357   10.000681    ( 0.0000,  0.0000,  0.0000)
   4 Ba     7.530000    7.099361   10.000666    ( 0.0000,  0.0000,  0.0000)
   5 Ba    12.549948    7.099357   10.000681    ( 0.0000,  0.0000,  0.0000)
   6 Ba     5.019955   10.649028   10.000584    ( 0.0000,  0.0000,  0.0000)
   7 Ba    10.040045   10.649028   10.000584    ( 0.0000,  0.0000,  0.0000)
   8 Ba    15.060000   10.649028   10.000594    ( 0.0000,  0.0000,  0.0000)
   9 Ba     0.000000    0.000000   13.548987    ( 0.0000,  0.0000,  0.0000)
  10 Ba     5.019945    0.000000   13.549053    ( 0.0000,  0.0000,  0.0000)
  11 Ba    10.040055    0.000000   13.549053    ( 0.0000,  0.0000,  0.0000)
  12 Ba     2.510080    3.549673   13.548929    ( 0.0000,  0.0000,  0.0000)
  13 Ba     7.530000    3.549648   13.548962    ( 0.0000,  0.0000,  0.0000)
  14 Ba    12.549920    3.549673   13.548929    ( 0.0000,  0.0000,  0.0000)
  15 Ba     5.019920    7.099355   13.548929    ( 0.0000,  0.0000,  0.0000)
  16 Ba    10.040080    7.099355   13.548929    ( 0.0000,  0.0000,  0.0000)
  17 Ba    15.060000    7.099380   13.548962    ( 0.0000,  0.0000,  0.0000)
  18 Ba     0.000000    3.549661   17.100070    ( 0.0000,  0.0000,  0.0000)
  19 Ba     5.019927    3.549664   17.100101    ( 0.0000,  0.0000,  0.0000)
  20 Ba    10.040073    3.549664   17.100101    ( 0.0000,  0.0000,  0.0000)
  21 Ba     2.510073    7.099364   17.100101    ( 0.0000,  0.0000,  0.0000)
  22 Ba     7.530000    7.099367   17.100070    ( 0.0000,  0.0000,  0.0000)
  23 Ba    12.549927    7.099364   17.100101    ( 0.0000,  0.0000,  0.0000)
  24 Ba     5.019932   10.649028   17.099982    ( 0.0000,  0.0000,  0.0000)
  25 Ba    10.040068   10.649028   17.099982    ( 0.0000,  0.0000,  0.0000)
  26 Ba    15.060000   10.649028   17.100045    ( 0.0000,  0.0000,  0.0000)
  27 Ba     0.000000    0.000000   20.648446    ( 0.0000,  0.0000,  0.0000)
  28 Ba     5.019974    0.000000   20.648436    ( 0.0000,  0.0000,  0.0000)
  29 Ba    10.040026    0.000000   20.648436    ( 0.0000,  0.0000,  0.0000)
  30 Ba     2.510063    3.549674   20.648352    ( 0.0000,  0.0000,  0.0000)
  31 Ba     7.530000    3.549657   20.648354    ( 0.0000,  0.0000,  0.0000)
  32 Ba    12.549937    3.549674   20.648352    ( 0.0000,  0.0000,  0.0000)
  33 Ba     5.019937    7.099354   20.648352    ( 0.0000,  0.0000,  0.0000)
  34 Ba    10.040063    7.099354   20.648352    ( 0.0000,  0.0000,  0.0000)
  35 Ba    15.060000    7.099371   20.648354    ( 0.0000,  0.0000,  0.0000)

Unit cell:
           periodic     x           y           z      points  spacing
  1. axis:    yes   15.060000    0.000000    0.000000    80     0.1537
  2. axis:    yes    7.530000   10.649028    0.000000    80     0.1331
  3. axis:    no     0.000000    0.000000   30.649028   192     0.1596

  Lengths:  15.060000  13.042343  30.649028
  Angles:   90.000000  90.000000  54.735610

Effective grid spacing dv^(1/3) = 0.1587

     iter     time        total  log10-change:
                         energy  eigst   dens
iter:   1 17:52:25 -6802.611504  -4.30
iter:   2 18:01:04 -6802.611541  -4.55  -3.99
iter:   3 18:09:39 -6802.611953c -4.25  -3.86
iter:   4 18:18:41 -6802.611802c -4.40  -3.52
Writing to output.gpw (mode='')

iter:   5 18:27:44 -6802.611408c -5.15  -3.49
iter:   6 18:36:53 -6802.611420c -5.45  -3.60
iter:   7 18:45:38 -6802.611334c -4.89  -3.61
iter:   8 18:54:36 -6802.611384c -4.79  -3.82
iter:   9 19:03:34 -6802.613229c -4.02  -3.83
Writing to output.gpw (mode='')

iter:  10 19:12:57 -6802.612362c -4.18  -3.29
iter:  11 19:22:00 -6802.614828c -4.00  -3.29
iter:  12 19:30:57 -6802.615703c -3.62  -3.10
iter:  13 19:39:52 -6802.614733c -3.89  -3.05
iter:  14 19:48:35 -6802.612031c -4.55  -3.01
Writing to output.gpw (mode='')

iter:  15 19:57:36 -6802.611804c -4.81  -3.07
iter:  16 20:06:41 -6802.610619c -4.46  -3.09
iter:  17 20:15:59 -6802.609471c -3.80  -3.17
iter:  18 20:24:50 -6802.615219c -2.99  -3.29
iter:  19 20:33:39 -6802.613787c -2.99  -3.31
Writing to output.gpw (mode='')

iter:  20 20:42:49 -6802.611583c -4.15  -3.25
iter:  21 20:52:08 -6802.610838c -4.24  -3.35
iter:  22 21:01:15 -6802.610669c -3.77  -3.48
iter:  23 21:10:14 -6802.611549c -3.50  -3.81
iter:  24 21:19:14 -6802.612077c -3.56  -3.99
Writing to output.gpw (mode='')

iter:  25 21:28:08 -6802.611926c -3.87  -3.68
iter:  26 21:36:44 -6802.611351c -4.89  -3.56
iter:  27 21:45:21 -6802.611374c -5.38  -3.71
iter:  28 21:54:20 -6802.611332c -5.55  -3.73
iter:  29 22:03:02 -6802.611284c -5.12  -3.77
Writing to output.gpw (mode='')

iter:  30 22:12:03 -6802.612090c -4.14  -3.86
iter:  31 22:20:38 -6802.611575c -4.39  -3.59
iter:  32 22:29:18 -6802.611258c -4.68  -3.62
iter:  33 22:38:05 -6802.611314c -4.44  -4.01c
iter:  34 22:46:50 -6802.611404c -4.27  -4.39c
Writing to output.gpw (mode='')

iter:  35 22:55:37 -6802.611485c -4.47  -4.41c
iter:  36 23:04:23 -6802.611587c -4.38  -4.18c
iter:  37 23:13:26 -6802.611544c -4.67  -3.90
iter:  38 23:22:08 -6802.611482c -5.46  -3.80
iter:  39 23:30:40 -6802.611602c -5.19  -3.79
Writing to output.gpw (mode='')

iter:  40 23:39:34 -6802.611352c -5.24  -3.68
iter:  41 23:48:11 -6802.611313c -5.10  -3.82
iter:  42 23:57:09 -6802.611363c -4.78  -4.23c
iter:  43 00:05:58 -6802.611396c -6.01  -4.34c
iter:  44 00:14:52 -6802.611401c -6.53  -4.26c
Writing to output.gpw (mode='')

iter:  45 00:23:55 -6802.611386c -6.48  -4.23c
iter:  46 00:32:38 -6802.611391c -6.54  -4.28c
iter:  47 00:41:14 -6802.611446c -5.28  -4.29c
iter:  48 00:50:02 -6802.611406c -5.51  -4.01c
iter:  49 00:59:07 -6802.611390c -6.16  -4.06c
Writing to output.gpw (mode='')

iter:  50 01:08:15 -6802.611422c -5.02  -4.12c
iter:  51 01:17:16 -6802.611415c -5.10  -4.29c
iter:  52 01:26:19 -6802.611404c -5.95  -4.23c
iter:  53 01:35:14 -6802.611382c -5.80  -4.22c
iter:  54 01:43:56 -6802.611388c -5.45  -4.53c
Writing to output.gpw (mode='')

iter:  55 01:52:54 -6802.611400c -5.49  -4.69c
iter:  56 02:01:44 -6802.611403c -5.58  -4.62c
iter:  57 02:10:37 -6802.611419c -5.49  -4.51c
iter:  58 02:19:27 -6802.611402c -6.04  -4.26c
iter:  59 02:28:34 -6802.611401c -6.74  -4.29c
Writing to output.gpw (mode='')

iter:  60 02:37:18 -6802.611398c -6.59  -4.28c
iter:  61 02:46:02 -6802.611413c -6.49  -4.29c
iter:  62 02:55:00 -6802.611384c -5.43  -4.18c
iter:  63 03:04:02 -6802.611391c -5.99  -4.48c
iter:  64 03:12:50 -6802.611404c -5.95  -4.47c
Writing to output.gpw (mode='')

iter:  65 03:21:56 -6802.611391c -5.65  -4.35c
iter:  66 03:31:05 -6802.611398c -5.73  -4.64c
iter:  67 03:39:51 -6802.611449c -5.06  -4.62c
iter:  68 03:48:59 -6802.611443c -5.09  -4.17c
iter:  69 03:58:08 -6802.611442c -5.62  -4.08c
Writing to output.gpw (mode='')

iter:  70 04:07:39 -6802.611432c -5.72  -4.04c
iter:  71 04:16:42 -6802.611381c -5.74  -4.02c
iter:  72 04:25:44 -6802.611400c -6.50  -4.20c
iter:  73 04:34:34 -6802.611508c -5.50  -4.18c
iter:  74 04:43:17 -6802.611598c -5.10  -3.80
Writing to output.gpw (mode='')

iter:  75 04:52:01 -6802.611624c -5.09  -3.71
iter:  76 05:00:52 -6802.611504c -5.46  -3.66
iter:  77 05:09:47 -6802.611383c -5.84  -3.66
iter:  78 05:18:40 -6802.611462c -6.24  -3.76
iter:  79 05:27:31 -6802.611639c -5.38  -3.74
Writing to output.gpw (mode='')

iter:  80 05:36:16 -6802.611682c -5.11  -3.59
iter:  81 05:44:58 -6802.611264c -4.42  -3.55
iter:  82 05:53:52 -6802.611344c -4.27  -4.14c
iter:  83 06:02:38 -6802.611386c -4.66  -4.20c
iter:  84 06:11:30 -6802.611388c -5.42  -4.23c
Writing to output.gpw (mode='')

iter:  85 06:20:07 -6802.611388c -5.68  -4.25c
iter:  86 06:28:53 -6802.611469c -5.08  -4.26c
iter:  87 06:37:54 -6802.611397c -5.40  -4.04c
iter:  88 06:46:40 -6802.611396c -5.21  -4.13c
iter:  89 06:55:46 -6802.611393c -5.62  -4.58c
Writing to output.gpw (mode='')

iter:  90 07:04:56 -6802.611391c -6.47  -4.65c
iter:  91 07:13:52 -6802.611402c -5.85  -4.83c
iter:  92 07:23:06 -6802.611400c -6.04  -4.54c
iter:  93 07:31:53 -6802.611395c -6.79  -4.47c
iter:  94 07:41:07 -6802.611396c -6.06  -4.50c
Writing to output.gpw (mode='')

iter:  95 07:50:13 -6802.611396c -6.06  -4.74c
iter:  96 07:59:10 -6802.611393c -6.65  -4.71c
iter:  97 08:08:15 -6802.611393c -7.13  -4.86c
iter:  98 08:17:09 -6802.611394c -7.16  -4.88c
iter:  99 08:26:06 -6802.611394c -7.46c -4.90c

Converged after 99 iterations.

Dipole moment: (-70.114636, -47.147010, 0.000019) |e|*Ang

Energy contributions relative to reference atoms: (reference = -7966002.330397)

Kinetic:       +135.097694
Potential:      -52.207294
External:        +0.000000
XC:            -6878.619972
Entropy (-ST):   -0.000000
Local:           -6.881822
--------------------------
Free energy:   -6802.611394
Extrapolated:  -6802.611394

Dipole-layer corrected work functions: -inf, -inf eV

 Band  Eigenvalues  Occupancy
    0    -31.87550    2.00000
    1    -31.87512    2.00000
    2    -31.86652    2.00000
    3    -31.86614    2.00000
    4    -31.86088    2.00000
    5    -31.86049    2.00000
    6    -31.85954    2.00000
    7    -31.85918    2.00000
    8    -31.85749    2.00000
    9    -31.85712    2.00000
   10    -31.85426    2.00000
   11    -31.85388    2.00000
   12    -31.85177    2.00000
   13    -31.85140    2.00000
   14    -31.84647    2.00000
   15    -31.84609    2.00000
   16    -31.84513    2.00000
   17    -31.84477    2.00000
   18    -31.43203    2.00000
   19    -31.42031    2.00000
   20    -31.41391    2.00000
   21    -31.41166    2.00000
   22    -31.40935    2.00000
   23    -31.40874    2.00000
   24    -31.40657    2.00000
   25    -31.40533    2.00000
   26    -31.40255    2.00000
   27    -31.40105    2.00000
   28    -31.40029    2.00000
   29    -31.40018    2.00000
   30    -31.39897    2.00000
   31    -31.39699    2.00000
   32    -31.39633    2.00000
   33    -31.39175    2.00000
   34    -31.38606    2.00000
   35    -31.38441    2.00000
   36    -17.23039    2.00000
   37    -17.22663    2.00000
   38    -17.22571    2.00000
   39    -17.22366    2.00000
   40    -17.22210    2.00000
   41    -17.22161    2.00000
   42    -17.22031    2.00000
   43    -17.21983    2.00000
   44    -17.20639    2.00000
   45    -17.20596    2.00000
   46    -17.19630    2.00000
   47    -17.19498    2.00000
   48    -17.19321    2.00000
   49    -17.18960    2.00000
   50    -17.18912    2.00000
   51    -17.18648    2.00000
   52    -17.18529    2.00000
   53    -17.18231    2.00000
   54    -17.17604    2.00000
   55    -17.17518    2.00000
   56    -17.17413    2.00000
   57    -17.17371    2.00000
   58    -17.16760    2.00000
   59    -17.16563    2.00000
   60    -17.16394    2.00000
   61    -17.16351    2.00000
   62    -17.16338    2.00000
   63    -17.16127    2.00000
   64    -17.15890    2.00000
   65    -17.15715    2.00000
   66    -17.15249    2.00000
   67    -17.15210    2.00000
   68    -17.10935    2.00000
   69    -17.10686    2.00000
   70    -17.09419    2.00000
   71    -17.09118    2.00000
   72    -17.08807    2.00000
   73    -17.08678    2.00000
   74    -17.07431    2.00000
   75    -17.07389    2.00000
   76    -17.03358    2.00000
   77    -17.03317    2.00000
   78    -16.96364    2.00000
   79    -16.96188    2.00000
   80    -16.96125    2.00000
   81    -16.95988    2.00000
   82    -16.94879    2.00000
   83    -16.94585    2.00000
   84    -16.94093    2.00000
   85    -16.93804    2.00000
   86    -16.93318    2.00000
   87    -16.93067    2.00000
   88    -16.91520    2.00000
   89    -16.91482    2.00000
   90    -16.83733    2.00000
   91    -16.83698    2.00000
   92    -16.83493    2.00000
   93    -16.83334    2.00000
   94    -16.80276    2.00000
   95    -16.79172    2.00000
   96    -16.79139    2.00000
   97    -16.79119    2.00000
   98    -16.79007    2.00000
   99    -16.78509    2.00000
  100    -16.78201    2.00000
  101    -16.77878    2.00000
  102    -16.77717    2.00000
  103    -16.77631    2.00000
  104    -16.77104    2.00000
  105    -16.73675    2.00000
  106    -16.73607    2.00000
  107    -16.73585    2.00000
  108    -16.71850    2.00000
  109    -16.71805    2.00000
  110    -16.71571    2.00000
  111    -16.71416    2.00000
  112    -16.71131    2.00000
  113    -16.68423    2.00000
  114    -16.68297    2.00000
  115    -16.66362    2.00000
  116    -16.65918    2.00000
  117    -16.65735    2.00000
  118    -16.64178    2.00000
  119    -16.63647    2.00000
  120    -16.62885    2.00000
  121    -16.62161    2.00000
  122    -16.61972    2.00000
  123    -16.60967    2.00000
  124    -16.60180    2.00000
  125    -16.59962    2.00000
  126    -16.59695    2.00000
  127    -16.58820    2.00000
  128    -16.58071    2.00000
  129    -16.57556    2.00000
  130    -16.56945    2.00000
  131    -16.56592    2.00000
  132    -16.56259    2.00000
  133    -16.54107    2.00000
  134    -16.53828    2.00000
  135    -16.53321    2.00000
  136    -16.52869    2.00000
  137    -16.52489    2.00000
  138    -16.52450    2.00000
  139    -16.52051    2.00000
  140    -16.51500    2.00000
  141    -16.50797    2.00000
  142    -16.50024    2.00000
  143    -16.49620    2.00000
  144     -5.00653    2.00000
  145     -4.59153    2.00000
  146     -4.33780    2.00000
  147     -3.99385    2.00000
  148     -3.98788    2.00000
  149     -3.95626    2.00000
  150     -3.80114    2.00000
  151     -3.66985    2.00000
  152     -3.65936    2.00000
  153     -3.47918    2.00000
  154     -3.46439    2.00000
  155     -3.45640    2.00000
  156     -3.45056    2.00000
  157     -3.44361    2.00000
  158     -3.40531    2.00000
  159     -3.38970    2.00000
  160     -3.21963    2.00000
  161     -3.18269    2.00000
  162     -3.11260    2.00000
  163     -3.07152    2.00000
  164     -3.00038    2.00000
  165     -2.99002    2.00000
  166     -2.91059    2.00000
  167     -2.86981    2.00000
  168     -2.86259    2.00000
  169     -2.83321    2.00000
  170     -2.82376    2.00000
  171     -2.76907    2.00000
  172     -2.75518    2.00000
  173     -2.72293    2.00000
  174     -2.71538    2.00000
  175     -2.71222    2.00000
  176     -2.71015    2.00000
  177     -2.70427    2.00000
  178     -2.52885    2.00000
  179     -2.50941    2.00000

Fermi level: inf

Writing to output.gpw (mode='')


Forces in eV/Ang:
  0 Ba    0.00000   -0.00055    0.04639
  1 Ba   -0.00354   -0.00027    0.04727
  2 Ba    0.00354   -0.00027    0.04727
  3 Ba    0.00354    0.00027    0.04727
  4 Ba    0.00000    0.00055    0.04639
  5 Ba   -0.00354    0.00027    0.04727
  6 Ba   -0.00299    0.00000    0.04067
  7 Ba    0.00299    0.00000    0.04067
  8 Ba    0.00000    0.00000    0.04131
  9 Ba    0.00000    0.00000   -0.04619
 10 Ba   -0.00370    0.00000   -0.04199
 11 Ba    0.00370    0.00000   -0.04199
 12 Ba    0.00533   -0.00031   -0.05033
 13 Ba    0.00000   -0.00186   -0.04805
 14 Ba   -0.00533   -0.00031   -0.05033
 15 Ba   -0.00533    0.00031   -0.05033
 16 Ba    0.00533    0.00031   -0.05033
 17 Ba    0.00000    0.00186   -0.04805
 18 Ba    0.00000   -0.00088    0.04845
 19 Ba   -0.00473   -0.00090    0.05113
 20 Ba    0.00473   -0.00090    0.05113
 21 Ba    0.00473    0.00090    0.05113
 22 Ba    0.00000    0.00088    0.04845
 23 Ba   -0.00473    0.00090    0.05113
 24 Ba   -0.00492    0.00000    0.04246
 25 Ba    0.00492    0.00000    0.04246
 26 Ba    0.00000    0.00000    0.04739
 27 Ba    0.00000    0.00000   -0.04159
 28 Ba   -0.00097    0.00000   -0.04208
 29 Ba    0.00097    0.00000   -0.04208
 30 Ba    0.00456    0.00007   -0.04798
 31 Ba    0.00000   -0.00147   -0.04766
 32 Ba   -0.00456    0.00007   -0.04798
 33 Ba   -0.00456   -0.00007   -0.04798
 34 Ba    0.00456   -0.00007   -0.04798
 35 Ba    0.00000    0.00147   -0.04766

System changes: positions 

Initializing position-dependent things.

Density initialized from wave functions
                                                            
                                                            
                                                            
                                                            
                                                            
                                                            
                        Ba          Ba           Ba         
                                                            
                Ba        BaBa        BaBa         Ba       
                                                            
       Ba         BaBa        BaBa        Ba                
                                                            
         Ba           Ba          Ba                        
                                                            
                                                            
                        Ba          Ba           Ba         
                                                            
                Ba        BaBa        BaBa         Ba       
                                                            
       Ba         BaBa        BaBa        Ba                
                                                            
         Ba           Ba          Ba                        
                                                            
                                                            
                                                            
                                                            
                                                            
                                                            

Positions:
   0 Ba     0.000000    3.549561   10.009695    ( 0.0000,  0.0000,  0.0000)
   1 Ba     5.019259    3.549618   10.009882    ( 0.0000,  0.0000,  0.0000)
   2 Ba    10.040741    3.549618   10.009882    ( 0.0000,  0.0000,  0.0000)
   3 Ba     2.510741    7.099410   10.009882    ( 0.0000,  0.0000,  0.0000)
   4 Ba     7.530000    7.099467   10.009695    ( 0.0000,  0.0000,  0.0000)
   5 Ba    12.549259    7.099410   10.009882    ( 0.0000,  0.0000,  0.0000)
   6 Ba     5.019371   10.649028   10.008499    ( 0.0000,  0.0000,  0.0000)
   7 Ba    10.040629   10.649028   10.008499    ( 0.0000,  0.0000,  0.0000)
   8 Ba    15.060000   10.649028   10.008634    ( 0.0000,  0.0000,  0.0000)
   9 Ba     0.000000   -0.000000   13.539988    ( 0.0000,  0.0000,  0.0000)
  10 Ba     5.019224   -0.000000   13.540873    ( 0.0000,  0.0000,  0.0000)
  11 Ba    10.040776   -0.000000   13.540873    ( 0.0000,  0.0000,  0.0000)
  12 Ba     2.511120    3.549612   13.539125    ( 0.0000,  0.0000,  0.0000)
  13 Ba     7.530000    3.549285   13.539602    ( 0.0000,  0.0000,  0.0000)
  14 Ba    12.548880    3.549612   13.539125    ( 0.0000,  0.0000,  0.0000)
  15 Ba     5.018880    7.099416   13.539125    ( 0.0000,  0.0000,  0.0000)
  16 Ba    10.041120    7.099416   13.539125    ( 0.0000,  0.0000,  0.0000)
  17 Ba    15.060000    7.099743   13.539602    ( 0.0000,  0.0000,  0.0000)
  18 Ba     0.000000    3.549488   17.109507    ( 0.0000,  0.0000,  0.0000)
  19 Ba     5.019005    3.549488   17.110057    ( 0.0000,  0.0000,  0.0000)
  20 Ba    10.040995    3.549488   17.110057    ( 0.0000,  0.0000,  0.0000)
  21 Ba     2.510995    7.099540   17.110057    ( 0.0000,  0.0000,  0.0000)
  22 Ba     7.530000    7.099540   17.109507    ( 0.0000,  0.0000,  0.0000)
  23 Ba    12.549005    7.099540   17.110057    ( 0.0000,  0.0000,  0.0000)
  24 Ba     5.018974   10.649028   17.108254    ( 0.0000,  0.0000,  0.0000)
  25 Ba    10.041026   10.649028   17.108254    ( 0.0000,  0.0000,  0.0000)
  26 Ba    15.060000   10.649028   17.109272    ( 0.0000,  0.0000,  0.0000)
  27 Ba     0.000000   -0.000000   20.640355    ( 0.0000,  0.0000,  0.0000)
  28 Ba     5.019782    0.000000   20.640250    ( 0.0000,  0.0000,  0.0000)
  29 Ba    10.040218    0.000000   20.640250    ( 0.0000,  0.0000,  0.0000)
  30 Ba     2.510951    3.549687   20.639018    ( 0.0000,  0.0000,  0.0000)
  31 Ba     7.530000    3.549372   20.639081    ( 0.0000,  0.0000,  0.0000)
  32 Ba    12.549049    3.549687   20.639018    ( 0.0000,  0.0000,  0.0000)
  33 Ba     5.019049    7.099341   20.639018    ( 0.0000,  0.0000,  0.0000)
  34 Ba    10.040951    7.099341   20.639018    ( 0.0000,  0.0000,  0.0000)
  35 Ba    15.060000    7.099656   20.639081    ( 0.0000,  0.0000,  0.0000)

Unit cell:
           periodic     x           y           z      points  spacing
  1. axis:    yes   15.060000    0.000000    0.000000    80     0.1537
  2. axis:    yes    7.530000   10.649028    0.000000    80     0.1331
  3. axis:    no     0.000000    0.000000   30.649028   192     0.1596

  Lengths:  15.060000  13.042343  30.649028
  Angles:   90.000000  90.000000  54.735610

Effective grid spacing dv^(1/3) = 0.1587

     iter     time        total  log10-change:
                         energy  eigst   dens
iter:   1 08:35:40 -6802.625098  -2.25
iter:   2 08:44:35 -6802.629423  -2.75  -3.02
iter:   3 08:53:24 -6802.634194c -3.08  -2.86
iter:   4 09:02:21 -6802.628979c -3.25  -2.73
Writing to output.gpw (mode='')

iter:   5 09:11:27 -6802.626211c -3.91  -2.77
iter:   6 09:20:40 -6802.626588c -3.37  -2.84
iter:   7 09:29:33 -6802.627363c -3.27  -2.94
iter:   8 09:38:25 -6802.636290c -3.29  -2.91
iter:   9 09:47:14 -6802.639194c -2.78  -2.84
Writing to output.gpw (mode='')

iter:  10 09:56:04 -6802.631822c -3.49  -2.79
iter:  11 10:05:05 -6802.632058c -3.56  -2.80
iter:  12 10:13:54 -6802.644600c -3.21  -2.76
iter:  13 10:22:58 -6802.648988c -2.96  -2.68
iter:  14 10:31:59 -6802.671413c -2.98  -2.64
Writing to output.gpw (mode='')

iter:  15 10:40:50 -6802.614855c -2.73  -2.53
iter:  16 10:49:36 -6802.625570c -3.04  -2.67
iter:  17 10:58:20 -6802.617233c -2.91  -2.66
iter:  18 11:06:56 -6802.642699c -2.17  -2.99
iter:  19 11:15:40 -6802.634495c -2.35  -2.88
Writing to output.gpw (mode='')

iter:  20 11:24:34 -6802.623718c -3.42  -2.87
iter:  21 11:33:14 -6802.629855c -3.44  -3.02
iter:  22 11:42:07 -6802.622592c -3.54  -2.93
iter:  23 11:51:00 -6802.650603c -2.47  -3.01
iter:  24 12:00:10 -6802.639650c -2.65  -2.71
Writing to output.gpw (mode='')

iter:  25 12:09:01 -6802.623246c -3.45  -2.71
iter:  26 12:17:55 -6802.618590c -3.34  -2.83
iter:  27 12:26:54 -6802.620735c -3.27  -2.95
iter:  28 12:35:53 -6802.656357c -3.01  -2.99
iter:  29 12:44:52 -6802.630406c -3.45  -2.62
Writing to output.gpw (mode='')

iter:  30 12:54:02 -6802.656242c -3.49  -2.67
iter:  31 13:03:15 -6802.683490c -2.65  -2.54
iter:  32 13:12:19 -6802.654506c -3.03  -2.45
iter:  33 13:21:27 -6802.640848c -3.77  -2.45
iter:  34 13:30:13 -6802.620478c -3.63  -2.47
Writing to output.gpw (mode='')

iter:  35 13:39:13 -6802.624788c -3.25  -2.53
iter:  36 13:47:58 -6802.620433c -3.16  -2.56
iter:  37 13:56:57 -6802.652261c -2.10  -2.58
iter:  38 14:06:00 -6802.650610c -2.01  -2.78
iter:  39 14:14:46 -6802.642115c -2.71  -2.72
Writing to output.gpw (mode='')

iter:  40 14:23:01 -6802.624854c -3.01  -2.70
iter:  41 14:32:15 -6802.619494c -3.20  -2.80
iter:  42 14:41:04 -6802.618509c -2.73  -2.89
iter:  43 14:50:11 -6802.647062c -2.32  -3.14
iter:  44 14:59:04 -6802.636969c -2.63  -2.84
Writing to output.gpw (mode='')

iter:  45 15:08:07 -6802.619713c -3.06  -2.80
iter:  46 15:16:48 -6802.620820c -3.11  -3.20
iter:  47 15:25:33 -6802.622759c -3.42  -3.37
iter:  48 15:34:18 -6802.623104c -3.95  -3.53
iter:  49 15:43:09 -6802.626371c -3.20  -3.54
Writing to output.gpw (mode='')

iter:  50 15:52:18 -6802.627171c -3.24  -3.25
iter:  51 16:01:09 -6802.626472c -3.38  -3.17
iter:  52 16:10:05 -6802.625265c -3.90  -3.11
iter:  53 16:19:07 -6802.625003c -4.10  -3.14
iter:  54 16:27:51 -6802.641049c -3.34  -3.15
Writing to output.gpw (mode='')

iter:  55 16:36:37 -6802.627306c -3.62  -2.74
iter:  56 16:45:19 -6802.621097c -3.96  -2.79
iter:  57 16:54:12 -6802.626310c -4.00  -2.89
iter:  58 17:02:50 -6802.638282c -3.56  -2.89
iter:  59 17:11:49 -6802.634564c -3.46  -2.70
Writing to output.gpw (mode='')

iter:  60 17:20:46 -6802.657461c -2.32  -2.68
iter:  61 17:29:43 -6802.639337c -2.57  -2.67
iter:  62 17:38:23 -6802.619238c -2.50  -2.69
iter:  63 17:47:21 -6802.624310c -2.46  -3.48
iter:  64 17:56:12 -6802.623656c -3.32  -3.48
Writing to output.gpw (mode='')

iter:  65 18:05:19 -6802.623416c -4.37  -3.52
iter:  66 18:14:20 -6802.624158c -4.28  -3.58
iter:  67 18:23:16 -6802.625037c -3.62  -3.49
iter:  68 18:32:05 -6802.630699c -3.25  -3.37
iter:  69 18:40:51 -6802.631202c -3.05  -3.05
Writing to output.gpw (mode='')

iter:  70 18:49:25 -6802.625175c -3.91  -2.98
iter:  71 18:58:04 -6802.624300c -4.57  -3.04
iter:  72 19:07:02 -6802.621706c -3.85  -3.06
iter:  73 19:15:53 -6802.623406c -4.04  -3.30
iter:  74 19:24:50 -6802.624480c -4.75  -3.32
Writing to output.gpw (mode='')

iter:  75 19:34:08 -6802.630771c -3.02  -3.28
iter:  76 19:42:58 -6802.621360c -3.36  -2.95
iter:  77 19:51:45 -6802.622258c -3.24  -3.14
iter:  78 20:00:44 -6802.624739c -2.79  -3.63
iter:  79 20:09:30 -6802.627763c -3.07  -3.56
Writing to output.gpw (mode='')

iter:  80 20:18:11 -6802.630178c -2.92  -3.30
iter:  81 20:26:57 -6802.628100c -3.25  -3.09
iter:  82 20:35:41 -6802.627542c -3.88  -3.03
iter:  83 20:44:08 -6802.627278c -3.89  -3.01
iter:  84 20:52:58 -6802.632556c -3.61  -2.99
Writing to output.gpw (mode='')

iter:  85 21:01:49 -6802.623905c -3.92  -2.87
iter:  86 21:10:43 -6802.620189c -3.61  -2.95
iter:  87 21:19:37 -6802.626073c -3.83  -3.25
iter:  88 21:28:28 -6802.630477c -3.97  -3.12
iter:  89 21:37:48 -6802.621234c -3.34  -2.98
Writing to output.gpw (mode='')

iter:  90 21:46:27 -6802.628753c -3.61  -3.15
iter:  91 21:55:27 -6802.626837c -3.89  -3.03
iter:  92 22:04:17 -6802.622008c -3.48  -3.00
iter:  93 22:13:15 -6802.626063c -3.51  -3.44
iter:  94 22:22:09 -6802.625291c -3.86  -3.26
Writing to output.gpw (mode='')

iter:  95 22:31:05 -6802.624136c -4.36  -3.20
iter:  96 22:40:01 -6802.623743c -4.09  -3.21
iter:  97 22:48:55 -6802.624662c -4.58  -3.22
iter:  98 22:57:49 -6802.629579c -3.92  -3.19
iter:  99 23:06:41 -6802.623443c -3.17  -2.93
Writing to output.gpw (mode='')

iter: 100 23:15:27 -6802.624129c -3.13  -3.01
iter: 101 23:24:36 -6802.624049c -3.43  -3.06
iter: 102 23:33:41 -6802.629345c -3.16  -3.10
iter: 103 23:42:50 -6802.633361c -3.01  -3.08
iter: 104 23:51:43 -6802.637352c -3.05  -2.96
Writing to output.gpw (mode='')

iter: 105 00:00:35 -6802.648962c -2.78  -2.86
iter: 106 00:09:45 -6802.631024c -3.31  -2.70
iter: 107 00:18:40 -6802.620781c -3.68  -2.73
iter: 108 00:27:40 -6802.632526c -3.75  -2.86
iter: 109 00:36:36 -6802.630355c -3.81  -2.80
Writing to output.gpw (mode='')

iter: 110 00:45:36 -6802.638232c -3.71  -2.79
iter: 111 00:54:38 -6802.622789c -3.74  -2.69
iter: 112 01:03:28 -6802.618724c -3.61  -2.79
iter: 113 01:12:18 -6802.616682c -3.04  -2.89
iter: 114 01:21:03 -6802.619863c -3.28  -3.02
Writing to output.gpw (mode='')

iter: 115 01:29:53 -6802.623271c -3.99  -3.11
iter: 116 01:39:00 -6802.622705c -4.34  -3.09
iter: 117 01:47:59 -6802.623942c -3.22  -3.12
iter: 118 01:56:51 -6802.624387c -3.08  -3.48
iter: 119 02:05:53 -6802.624498c -3.73  -3.43
Writing to output.gpw (mode='')

iter: 120 02:15:01 -6802.632960c -3.18  -3.39
iter: 121 02:24:08 -6802.634601c -2.90  -2.94
iter: 122 02:33:09 -6802.639953c -3.16  -2.88
iter: 123 02:41:57 -6802.624841c -3.40  -2.77
iter: 124 02:50:45 -6802.625631c -3.85  -2.85
Writing to output.gpw (mode='')

iter: 125 02:59:41 -6802.628923c -3.83  -2.86
iter: 126 03:08:28 -6802.620614c -3.23  -2.84
iter: 127 03:17:43 -6802.627618c -2.81  -3.29
iter: 128 03:26:29 -6802.628529c -2.67  -3.24
iter: 129 03:35:32 -6802.623077c -3.35  -3.13
Writing to output.gpw (mode='')

iter: 130 03:44:28 -6802.623592c -3.57  -3.80
iter: 131 03:53:22 -6802.623728c -4.06  -3.84
iter: 132 04:02:02 -6802.623676c -4.97  -3.83
iter: 133 04:10:52 -6802.623922c -4.85  -3.86
iter: 134 04:19:29 -6802.623881c -4.74  -3.73
Writing to output.gpw (mode='')

iter: 135 04:28:08 -6802.624135c -4.57  -3.69
iter: 136 04:36:52 -6802.623546c -4.55  -3.53
iter: 137 04:45:33 -6802.623785c -5.61  -3.78
iter: 138 04:54:24 -6802.625303c -4.18  -3.73
iter: 139 05:03:06 -6802.624194c -4.55  -3.23
Writing to output.gpw (mode='')

iter: 140 05:12:04 -6802.627837c -4.06  -3.25
iter: 141 05:20:57 -6802.624691c -4.54  -3.01
iter: 142 05:29:59 -6802.622334c -4.19  -3.04
iter: 143 05:38:51 -6802.621962c -3.48  -3.25
iter: 144 05:47:45 -6802.622448c -3.53  -3.52
Writing to output.gpw (mode='')

iter: 145 05:56:36 -6802.623216c -3.62  -3.69
iter: 146 06:05:36 -6802.623437c -4.16  -3.97
iter: 147 06:14:18 -6802.623651c -4.15  -4.06c
iter: 148 06:22:53 -6802.624464c -3.73  -4.02c
iter: 149 06:31:26 -6802.624635c -3.77  -3.56
Writing to output.gpw (mode='')

iter: 150 06:39:53 -6802.624554c -4.06  -3.46
iter: 151 06:48:26 -6802.626089c -3.87  -3.41
iter: 152 06:57:17 -6802.624991c -3.88  -3.20
iter: 153 07:05:57 -6802.625524c -4.58  -3.20
iter: 154 07:14:35 -6802.627485c -3.69  -3.16
Writing to output.gpw (mode='')

iter: 155 07:23:17 -6802.628043c -3.90  -3.05
iter: 156 07:32:14 -6802.626208c -3.96  -3.01
iter: 157 07:40:58 -6802.623835c -4.44  -3.01
iter: 158 07:49:33 -6802.623766c -4.38  -3.10
iter: 159 07:58:14 -6802.628522c -4.06  -3.12
Writing to output.gpw (mode='')

iter: 160 08:07:03 -6802.619930c -3.26  -2.98
iter: 161 08:15:48 -6802.621005c -3.15  -3.27
iter: 162 08:24:45 -6802.622730c -3.24  -3.41
iter: 163 08:33:50 -6802.623360c -3.72  -3.54
iter: 164 08:42:43 -6802.623535c -3.93  -3.73
Writing to output.gpw (mode='')

iter: 165 08:51:45 -6802.623631c -4.51  -3.87
iter: 166 09:00:44 -6802.623646c -4.58  -3.84
iter: 167 09:09:47 -6802.623673c -5.01  -3.85
iter: 168 09:18:40 -6802.623691c -5.01  -3.91
iter: 169 09:27:24 -6802.623757c -4.91  -3.91
Writing to output.gpw (mode='')

iter: 170 09:36:25 -6802.623716c -4.89  -3.97
iter: 171 09:45:28 -6802.623711c -5.41  -4.04c
iter: 172 09:54:25 -6802.623765c -5.18  -4.07c
iter: 173 10:03:34 -6802.623727c -5.00  -3.92
iter: 174 10:12:25 -6802.623746c -4.97  -3.99
Writing to output.gpw (mode='')

iter: 175 10:21:17 -6802.623762c -4.96  -4.06c
iter: 176 10:30:26 -6802.623728c -5.51  -4.05c
iter: 177 10:39:35 -6802.623714c -5.52  -4.12c
iter: 178 10:48:45 -6802.623726c -5.35  -4.24c
iter: 179 10:57:47 -6802.623735c -5.58  -4.29c
Writing to output.gpw (mode='')

iter: 180 11:06:56 -6802.623732c -5.58  -4.30c
iter: 181 11:15:58 -6802.623727c -6.17  -4.28c
iter: 182 11:25:00 -6802.623740c -5.67  -4.30c
iter: 183 11:34:02 -6802.623744c -5.63  -4.18c
iter: 184 11:43:03 -6802.623739c -5.66  -4.13c
Writing to output.gpw (mode='')

iter: 185 11:52:05 -6802.623790c -5.48  -4.18c
iter: 186 12:00:46 -6802.623725c -5.70  -3.98
iter: 187 12:09:29 -6802.623710c -5.56  -4.09c
iter: 188 12:18:15 -6802.623721c -5.14  -4.30c
iter: 189 12:27:29 -6802.623734c -5.96  -4.35c
Writing to output.gpw (mode='')

iter: 190 12:36:20 -6802.623741c -6.09  -4.28c
iter: 191 12:45:07 -6802.623737c -6.03  -4.23c
iter: 192 12:54:16 -6802.623750c -6.16  -4.21c
iter: 193 13:02:56 -6802.623735c -6.47  -4.14c
iter: 194 13:12:10 -6802.623734c -6.38  -4.14c
Writing to output.gpw (mode='')

iter: 195 13:21:09 -6802.623743c -5.97  -4.13c
iter: 196 13:29:53 -6802.623756c -5.46  -4.07c
iter: 197 13:38:33 -6802.623746c -5.19  -4.09c
iter: 198 13:47:26 -6802.623743c -5.57  -4.14c
iter: 199 13:56:17 -6802.623727c -5.97  -4.15c
Writing to output.gpw (mode='')

iter: 200 14:04:54 -6802.623758c -5.40  -4.25c
iter: 201 14:13:46 -6802.623767c -5.15  -4.20c
iter: 202 14:22:26 -6802.623774c -5.36  -4.14c
iter: 203 14:31:31 -6802.623724c -5.44  -4.08c
iter: 204 14:40:23 -6802.623736c -5.66  -4.23c
Writing to output.gpw (mode='')

iter: 205 14:49:06 -6802.623738c -6.09  -4.21c
iter: 206 14:58:13 -6802.623732c -5.73  -4.20c
iter: 207 15:07:08 -6802.623753c -5.14  -4.30c
iter: 208 15:15:38 -6802.623882c -4.97  -4.21c
iter: 209 15:24:23 -6802.623755c -5.27  -3.85
Writing to output.gpw (mode='')

iter: 210 15:33:04 -6802.623700c -5.55  -3.93
iter: 211 15:41:41 -6802.623743c -5.96  -4.25c
iter: 212 15:50:12 -6802.623725c -6.28  -4.16c
iter: 213 15:59:12 -6802.623735c -6.36  -4.23c
iter: 214 16:07:55 -6802.623762c -5.42  -4.21c
Writing to output.gpw (mode='')

iter: 215 16:16:44 -6802.623792c -5.21  -4.13c
iter: 216 16:25:33 -6802.623794c -5.19  -4.03c
iter: 217 16:34:29 -6802.623837c -5.23  -3.96
iter: 218 16:43:28 -6802.623749c -5.60  -3.88
iter: 219 16:52:33 -6802.623711c -5.92  -3.92
Writing to output.gpw (mode='')

iter: 220 17:01:38 -6802.623698c -5.07  -4.01c
iter: 221 17:10:30 -6802.623727c -4.85  -4.25c
iter: 222 17:19:22 -6802.623729c -5.66  -4.32c
iter: 223 17:28:24 -6802.623741c -5.95  -4.52c
iter: 224 17:37:19 -6802.623726c -5.82  -4.40c
Writing to output.gpw (mode='')

iter: 225 17:46:00 -6802.623728c -6.14  -4.60c
iter: 226 17:54:51 -6802.623731c -6.10  -4.64c
iter: 227 18:03:39 -6802.623743c -5.60  -4.60c
iter: 228 18:12:24 -6802.623769c -5.32  -4.43c
iter: 229 18:21:04 -6802.623746c -5.64  -4.19c
Writing to output.gpw (mode='')

iter: 230 18:29:59 -6802.623780c -5.84  -4.20c
iter: 231 18:38:55 -6802.623740c -6.06  -4.03c
iter: 232 18:47:42 -6802.623768c -6.44  -4.08c
iter: 233 18:56:58 -6802.623763c -5.94  -4.01c
iter: 234 19:05:58 -6802.623733c -6.12  -3.97
Writing to output.gpw (mode='')

iter: 235 19:15:05 -6802.623758c -5.08  -4.03c
iter: 236 19:23:59 -6802.623756c -5.10  -4.29c
iter: 237 19:32:43 -6802.623732c -5.54  -4.26c
iter: 238 19:41:24 -6802.623740c -5.41  -4.48c
iter: 239 19:50:16 -6802.623731c -6.41  -4.49c
Writing to output.gpw (mode='')

iter: 240 19:59:19 -6802.623730c -6.82  -4.60c
iter: 241 20:08:14 -6802.623738c -6.15  -4.71c
iter: 242 20:17:09 -6802.623747c -5.98  -4.54c
iter: 243 20:25:52 -6802.623757c -5.89  -4.35c
iter: 244 20:34:38 -6802.623747c -6.05  -4.21c
Writing to output.gpw (mode='')

iter: 245 20:43:35 -6802.623747c -6.66  -4.20c
iter: 246 20:52:28 -6802.623737c -6.68  -4.18c
iter: 247 21:01:34 -6802.623738c -6.92  -4.21c
iter: 248 21:10:28 -6802.623741c -6.54  -4.21c
iter: 249 21:19:30 -6802.623721c -5.65  -4.19c
Writing to output.gpw (mode='')

iter: 250 21:28:23 -6802.623731c -5.29  -4.43c
iter: 251 21:37:09 -6802.623736c -5.44  -4.63c
iter: 252 21:45:59 -6802.623732c -6.36  -4.63c
iter: 253 21:54:53 -6802.623732c -6.59  -4.76c
iter: 254 22:03:57 -6802.623733c -6.23  -4.85c
Writing to output.gpw (mode='')

iter: 255 22:12:48 -6802.623734c -6.57  -4.84c
iter: 256 22:21:46 -6802.623735c -6.59  -4.80c
iter: 257 22:30:36 -6802.623738c -6.36  -4.72c
iter: 258 22:39:27 -6802.623737c -6.44  -4.58c
iter: 259 22:48:15 -6802.623737c -6.94  -4.54c
Writing to output.gpw (mode='')

iter: 260 22:57:36 -6802.623736c -6.90  -4.51c
iter: 261 23:06:30 -6802.623732c -6.93  -4.49c
iter: 262 23:15:26 -6802.623741c -6.55  -4.56c
iter: 263 23:24:09 -6802.623731c -6.38  -4.43c
iter: 264 23:32:58 -6802.623731c -6.70  -4.52c
Writing to output.gpw (mode='')

iter: 265 23:41:58 -6802.623731c -6.25  -4.57c
iter: 266 23:50:51 -6802.623733c -6.01  -4.70c
iter: 267 23:59:37 -6802.623734c -6.00  -4.69c
iter: 268 00:08:28 -6802.623733c -6.72  -4.71c
iter: 269 00:17:09 -6802.623737c -6.59  -4.84c
Writing to output.gpw (mode='')

iter: 270 00:26:08 -6802.623740c -6.00  -4.72c
iter: 271 00:34:53 -6802.623741c -6.19  -4.57c
iter: 272 00:43:28 -6802.623743c -6.19  -4.50c
iter: 273 00:52:05 -6802.623739c -6.60  -4.43c
iter: 274 01:00:57 -6802.623754c -6.30  -4.40c
Writing to output.gpw (mode='')

iter: 275 01:09:49 -6802.623744c -6.50  -4.18c
iter: 276 01:18:32 -6802.623746c -6.98  -4.19c
iter: 277 01:27:07 -6802.623747c -6.70  -4.17c
iter: 278 01:35:38 -6802.623748c -6.85  -4.16c
iter: 279 01:44:17 -6802.623732c -5.78  -4.14c
Writing to output.gpw (mode='')

iter: 280 01:53:14 -6802.623731c -5.91  -4.32c
iter: 281 02:01:54 -6802.623731c -6.43  -4.41c
iter: 282 02:10:44 -6802.623738c -6.03  -4.56c
iter: 283 02:19:38 -6802.623736c -6.07  -4.52c
iter: 284 02:28:14 -6802.623735c -6.51  -4.53c
Writing to output.gpw (mode='')

iter: 285 02:36:45 -6802.623734c -6.48  -4.51c
iter: 286 02:45:23 -6802.623738c -6.90  -4.55c
iter: 287 02:54:15 -6802.623743c -6.53  -4.47c
iter: 288 03:02:59 -6802.623730c -6.06  -4.39c
iter: 289 03:11:50 -6802.623732c -5.99  -4.63c
Writing to output.gpw (mode='')

iter: 290 03:21:04 -6802.623735c -5.90  -4.75c
iter: 291 03:29:52 -6802.623736c -6.19  -4.75c
iter: 292 03:38:55 -6802.623735c -6.79  -4.74c
iter: 293 03:47:40 -6802.623736c -6.90  -4.75c
iter: 294 03:56:45 -6802.623737c -6.45  -4.72c
Writing to output.gpw (mode='')

iter: 295 04:05:44 -6802.623738c -6.08  -4.66c
iter: 296 04:14:38 -6802.623739c -6.01  -4.74c
iter: 297 04:23:36 -6802.623738c -6.37  -4.67c
iter: 298 04:32:22 -6802.623747c -6.29  -4.63c
iter: 299 04:41:14 -6802.623740c -6.60  -4.35c
Writing to output.gpw (mode='')

iter: 300 04:49:55 -6802.623739c -7.15  -4.37c
iter: 301 04:58:57 -6802.623739c -7.16  -4.37c
iter: 302 05:07:49 -6802.623739c -7.21  -4.37c
iter: 303 05:16:33 -6802.623781c -5.22  -4.37c
iter: 304 05:25:28 -6802.623733c -5.62  -4.08c
Writing to output.gpw (mode='')

iter: 305 05:34:37 -6802.623729c -5.43  -4.17c
iter: 306 05:43:46 -6802.623740c -5.05  -4.90c
iter: 307 05:53:03 -6802.623749c -5.48  -4.80c
iter: 308 06:01:56 -6802.623766c -5.30  -4.51c
iter: 309 06:10:51 -6802.623767c -5.47  -4.26c
Writing to output.gpw (mode='')

iter: 310 06:20:11 -6802.623780c -5.66  -4.18c
iter: 311 06:29:22 -6802.623796c -5.36  -4.09c
iter: 312 06:38:27 -6802.623794c -5.56  -4.00
iter: 313 06:47:19 -6802.623806c -5.63  -3.95
iter: 314 06:56:12 -6802.623735c -6.02  -3.90
Writing to output.gpw (mode='')

iter: 315 07:05:26 -6802.623721c -6.02  -3.98
iter: 316 07:14:28 -6802.623756c -6.49  -4.04c
iter: 317 07:20:53 -6802.623722c -5.80  -4.02c
iter: 318 07:29:54 -6802.623719c -5.43  -4.24c
iter: 319 07:38:54 -6802.623733c -5.19  -4.50c
Writing to output.gpw (mode='')

iter: 320 07:47:58 -6802.623739c -5.28  -4.61c
iter: 321 07:56:47 -6802.623740c -5.88  -4.62c
iter: 322 08:05:35 -6802.623743c -6.07  -4.65c
iter: 323 08:14:38 -6802.623742c -6.27  -4.57c
iter: 324 08:23:23 -6802.623763c -5.83  -4.51c
Writing to output.gpw (mode='')

iter: 325 08:32:35 -6802.623736c -6.21  -4.19c
iter: 326 08:41:29 -6802.623736c -6.47  -4.28c
iter: 327 08:50:18 -6802.623748c -6.79  -4.30c
iter: 328 08:59:00 -6802.623737c -6.73  -4.24c
iter: 329 09:07:59 -6802.623762c -5.51  -4.32c
Writing to output.gpw (mode='')

iter: 330 09:16:53 -6802.623746c -5.76  -4.28c
iter: 331 09:25:48 -6802.623737c -6.57  -4.31c
iter: 332 09:34:42 -6802.623736c -6.19  -4.39c
iter: 333 09:43:41 -6802.623736c -6.00  -4.53c
iter: 334 09:52:43 -6802.623742c -5.63  -4.78c
Writing to output.gpw (mode='')

iter: 335 10:01:46 -6802.623743c -6.03  -4.75c
iter: 336 10:10:29 -6802.623745c -6.17  -4.66c
iter: 337 10:19:21 -6802.623743c -6.30  -4.55c
iter: 338 10:28:26 -6802.623750c -6.34  -4.50c
iter: 339 10:37:17 -6802.623749c -6.18  -4.35c
Writing to output.gpw (mode='')

iter: 340 10:46:12 -6802.623751c -6.50  -4.30c
iter: 341 10:55:11 -6802.623740c -6.71  -4.25c
iter: 342 11:04:06 -6802.623737c -6.74  -4.31c
iter: 343 11:12:56 -6802.623741c -6.91  -4.36c
iter: 344 11:22:13 -6802.623736c -6.30  -4.36c
Writing to output.gpw (mode='')

iter: 345 11:31:20 -6802.623738c -5.97  -4.63c
iter: 346 11:40:26 -6802.623739c -6.36  -4.88c
iter: 347 11:49:40 -6802.623745c -6.27  -4.91c
iter: 348 11:58:38 -6802.623740c -7.07  -4.58c
iter: 349 12:07:52 -6802.623763c -6.04  -4.66c
Writing to output.gpw (mode='')

iter: 350 12:16:58 -6802.623767c -5.81  -4.19c
iter: 351 12:26:10 -6802.623761c -6.09  -4.15c
iter: 352 12:35:25 -6802.623759c -6.48  -4.11c
iter: 353 12:44:34 -6802.623731c -6.00  -4.10c
iter: 354 12:53:22 -6802.623734c -6.06  -4.42c
Writing to output.gpw (mode='')

iter: 355 13:02:47 -6802.623737c -6.27  -4.46c
iter: 356 13:12:07 -6802.623757c -6.11  -4.56c
iter: 357 13:21:00 -6802.623740c -6.18  -4.27c
iter: 358 13:30:06 -6802.623751c -6.60  -4.33c
iter: 359 13:38:51 -6802.623743c -6.58  -4.27c
Writing to output.gpw (mode='')

iter: 360 13:47:34 -6802.623737c -6.08  -4.29c
iter: 361 13:56:18 -6802.623740c -5.85  -4.65c
iter: 362 14:05:04 -6802.623743c -5.84  -4.82c
iter: 363 14:13:57 -6802.623743c -6.06  -4.74c
iter: 364 14:22:22 -6802.623744c -6.39  -4.73c
Writing to output.gpw (mode='')

iter: 365 14:30:54 -6802.623745c -6.35  -4.70c
iter: 366 14:39:40 -6802.623750c -6.25  -4.60c
iter: 367 14:48:18 -6802.623747c -6.28  -4.45c
iter: 368 14:57:01 -6802.623742c -6.20  -4.43c
iter: 369 15:05:48 -6802.623742c -6.55  -4.61c
Writing to output.gpw (mode='')

iter: 370 15:14:39 -6802.623756c -5.97  -4.66c
iter: 371 15:23:25 -6802.623768c -5.74  -4.36c
iter: 372 15:32:20 -6802.623769c -5.74  -4.24c
iter: 373 15:41:13 -6802.623767c -5.98  -4.16c
iter: 374 15:50:00 -6802.623736c -6.12  -4.12c
Writing to output.gpw (mode='')

iter: 375 15:58:49 -6802.623734c -6.04  -4.30c
iter: 376 16:07:36 -6802.623736c -5.85  -4.46c
iter: 377 16:16:35 -6802.623738c -5.97  -4.58c
iter: 378 16:25:19 -6802.623740c -5.96  -4.76c
iter: 379 16:34:16 -6802.623743c -6.10  -4.89c
Writing to output.gpw (mode='')

iter: 380 16:43:08 -6802.623744c -6.54  -5.01c
iter: 381 16:51:52 -6802.623744c -6.97  -4.96c
iter: 382 17:00:53 -6802.623744c -6.75  -4.97c
iter: 383 17:09:56 -6802.623744c -7.02  -4.93c
iter: 384 17:19:00 -6802.623744c -7.06  -4.95c
Writing to output.gpw (mode='')

iter: 385 17:28:04 -6802.623744c -6.95  -5.07c
iter: 386 17:37:10 -6802.623745c -6.99  -5.09c
iter: 387 17:46:12 -6802.623745c -7.19  -5.09c
iter: 388 17:55:13 -6802.623746c -7.03  -5.08c
iter: 389 18:04:05 -6802.623746c -6.92  -4.86c
Writing to output.gpw (mode='')

iter: 390 18:13:00 -6802.623749c -6.87  -4.83c
iter: 391 18:21:47 -6802.623745c -6.94  -4.55c
iter: 392 18:30:35 -6802.623745c -7.04  -4.62c
iter: 393 18:39:20 -6802.623745c -6.70  -4.64c
iter: 394 18:48:21 -6802.623745c -6.80  -4.75c
Writing to output.gpw (mode='')

iter: 395 18:57:29 -6802.623757c -6.17  -4.78c
iter: 396 19:06:22 -6802.623749c -6.48  -4.33c
iter: 397 19:15:16 -6802.623744c -6.10  -4.37c
iter: 398 19:24:24 -6802.623745c -6.42  -4.85c
iter: 399 19:33:33 -6802.623746c -6.99  -5.00c
Writing to output.gpw (mode='')

iter: 400 19:42:43 -6802.623746c -7.03  -5.04c
iter: 401 19:51:45 -6802.623747c -6.88  -5.08c
iter: 402 20:00:59 -6802.623747c -7.09  -4.87c
iter: 403 20:10:00 -6802.623750c -6.72  -4.86c
iter: 404 20:19:09 -6802.623747c -6.79  -4.54c
Writing to output.gpw (mode='')

iter: 405 20:27:55 -6802.623747c -7.11  -4.68c
iter: 406 20:36:40 -6802.623747c -7.04  -4.71c
iter: 407 20:45:22 -6802.623747c -7.14  -4.78c
iter: 408 20:54:31 -6802.623749c -7.02  -4.81c
iter: 409 21:03:21 -6802.623748c -6.36  -4.67c
Writing to output.gpw (mode='')

iter: 410 21:11:59 -6802.623747c -6.37  -4.77c
iter: 411 21:21:08 -6802.623748c -6.42  -4.84c
iter: 412 21:30:28 -6802.623748c -7.16  -4.96c
iter: 413 21:39:27 -6802.623751c -6.55  -4.95c
iter: 414 21:48:11 -6802.623751c -6.53  -4.73c
Writing to output.gpw (mode='')

iter: 415 21:56:50 -6802.623754c -6.36  -4.68c
iter: 416 22:05:35 -6802.623749c -6.95  -4.49c
iter: 417 22:14:11 -6802.623750c -7.26  -4.56c
iter: 418 22:23:01 -6802.623748c -6.71  -4.55c
iter: 419 22:31:36 -6802.623749c -7.15  -4.77c
Writing to output.gpw (mode='')

iter: 420 22:40:27 -6802.623765c -5.74  -4.75c
iter: 421 22:49:10 -6802.623755c -6.21  -4.25c
iter: 422 22:57:57 -6802.623749c -6.57  -4.28c
iter: 423 23:06:50 -6802.623751c -6.58  -4.38c
iter: 424 23:15:21 -6802.623749c -6.71  -4.39c
Writing to output.gpw (mode='')

iter: 425 23:24:02 -6802.623750c -5.96  -4.47c
iter: 426 23:32:45 -6802.623751c -5.99  -4.89c
iter: 427 23:41:41 -6802.623750c -6.71  -4.88c
iter: 428 23:50:37 -6802.623751c -6.87  -4.97c
iter: 429 23:59:34 -6802.623751c -6.98  -4.95c
Writing to output.gpw (mode='')

iter: 430 00:08:58 -6802.623758c -6.18  -5.02c
iter: 431 00:17:51 -6802.623750c -6.50  -4.50c
iter: 432 00:26:43 -6802.623768c -6.07  -4.65c
iter: 433 00:35:26 -6802.623758c -6.41  -4.31c
iter: 434 00:44:19 -6802.623777c -6.26  -4.33c
Writing to output.gpw (mode='')

iter: 435 00:52:58 -6802.623766c -6.37  -4.14c
iter: 436 01:01:51 -6802.623756c -6.74  -4.14c
iter: 437 01:10:46 -6802.623842c -5.60  -4.19c
iter: 438 01:19:42 -6802.623740c -5.70  -3.87
iter: 439 01:28:58 -6802.623765c -6.44  -3.96
Writing to output.gpw (mode='')

iter: 440 01:38:00 -6802.623763c -6.65  -3.96
iter: 441 01:47:00 -6802.623766c -6.57  -3.97
iter: 442 01:56:06 -6802.624987c -3.97  -3.97
iter: 443 02:05:14 -6802.623708c -4.32  -3.27
iter: 444 02:14:12 -6802.623377c -4.66  -3.34
Writing to output.gpw (mode='')

iter: 445 02:23:07 -6802.623470c -4.48  -3.45
iter: 446 02:31:47 -6802.623399c -4.47  -3.49
iter: 447 02:40:42 -6802.624012c -4.99  -3.70
iter: 448 02:49:48 -6802.623831c -5.71  -3.55
iter: 449 02:58:46 -6802.623738c -5.70  -3.56
Writing to output.gpw (mode='')

iter: 450 03:07:34 -6802.624026c -5.25  -3.59
iter: 451 03:16:39 -6802.625761c -3.71  -3.53
iter: 452 03:25:43 -6802.623532c -4.02  -3.31
iter: 453 03:34:23 -6802.623576c -4.62  -3.44
iter: 454 03:43:18 -6802.624249c -4.64  -3.48
Writing to output.gpw (mode='')

iter: 455 03:52:15 -6802.624276c -4.71  -3.43
iter: 456 04:01:12 -6802.628256c -3.40  -3.41
iter: 457 04:09:52 -6802.624912c -3.67  -3.09
iter: 458 04:18:49 -6802.622808c -4.13  -3.14
iter: 459 04:27:37 -6802.622624c -3.76  -3.31
Writing to output.gpw (mode='')

iter: 460 04:36:09 -6802.622916c -3.80  -3.46
iter: 461 04:45:16 -6802.623828c -4.37  -3.63
iter: 462 04:54:20 -6802.623655c -4.52  -3.58
iter: 463 05:03:19 -6802.623857c -3.91  -3.68
iter: 464 05:12:25 -6802.624042c -3.93  -3.74
Writing to output.gpw (mode='')

iter: 465 05:21:28 -6802.623731c -4.78  -3.69
iter: 466 05:30:49 -6802.623803c -4.85  -3.89
iter: 467 05:39:47 -6802.623741c -5.01  -4.12c
iter: 468 05:48:34 -6802.623811c -4.89  -4.31c
iter: 469 05:57:27 -6802.623789c -5.06  -4.21c
Writing to output.gpw (mode='')

iter: 470 06:06:30 -6802.623786c -4.93  -4.16c
iter: 471 06:15:16 -6802.623788c -5.14  -4.31c
iter: 472 06:23:59 -6802.623752c -5.53  -4.23c
iter: 473 06:33:04 -6802.623757c -5.89  -4.67c
iter: 474 06:42:20 -6802.623763c -6.36  -4.73c
Writing to output.gpw (mode='')

iter: 475 06:51:54 -6802.623768c -5.72  -4.58c
iter: 476 07:01:06 -6802.623770c -5.59  -4.58c
iter: 477 07:10:03 -6802.623766c -6.03  -4.49c
iter: 478 07:18:56 -6802.623779c -6.13  -4.46c
iter: 479 07:28:11 -6802.623782c -5.79  -4.28c
Writing to output.gpw (mode='')

iter: 480 07:37:07 -6802.623878c -5.37  -4.21c
iter: 481 07:45:58 -6802.623842c -5.24  -3.87
iter: 482 07:54:53 -6802.623751c -5.76  -3.85
iter: 483 08:04:05 -6802.623746c -5.83  -3.98
iter: 484 08:13:12 -6802.623735c -5.58  -4.02c
Writing to output.gpw (mode='')

iter: 485 08:22:03 -6802.623755c -5.60  -4.16c
iter: 486 08:30:41 -6802.623860c -4.88  -4.21c
iter: 487 08:39:34 -6802.623804c -5.21  -3.99
iter: 488 08:48:27 -6802.623741c -5.41  -4.00c
iter: 489 08:57:25 -6802.623751c -5.31  -4.39c
Writing to output.gpw (mode='')

iter: 490 09:06:11 -6802.623764c -5.39  -4.66c
iter: 491 09:15:12 -6802.623775c -5.26  -4.83c
iter: 492 09:24:10 -6802.623775c -5.67  -4.56c
iter: 493 09:33:13 -6802.623788c -5.71  -4.42c
iter: 494 09:42:06 -6802.623784c -5.73  -4.23c
Writing to output.gpw (mode='')

iter: 495 09:51:34 -6802.623797c -5.97  -4.19c
iter: 496 10:00:41 -6802.623771c -6.24  -4.09c
iter: 497 10:09:44 -6802.623764c -6.58  -4.15c
iter: 498 10:18:55 -6802.623774c -6.73  -4.20c
iter: 499 10:28:17 -6802.623764c -6.51  -4.19c
Writing to output.gpw (mode='')

iter: 500 10:37:25 -6802.623760c -6.20  -4.31c
iter: 501 10:46:17 -6802.623773c -5.48  -4.41c
iter: 502 10:55:10 -6802.623788c -5.12  -4.58c
iter: 503 11:04:06 -6802.623779c -5.54  -4.38c
iter: 504 11:12:50 -6802.623776c -5.42  -4.32c
Writing to output.gpw (mode='')

iter: 505 11:21:37 -6802.623778c -5.57  -4.56c
iter: 506 11:30:31 -6802.623769c -6.43  -4.49c
iter: 507 11:39:42 -6802.623768c -6.99  -4.56c
iter: 508 11:48:42 -6802.623770c -6.08  -4.57c
iter: 509 11:57:33 -6802.623773c -5.81  -4.72c
Writing to output.gpw (mode='')

iter: 510 12:05:54 -6802.623773c -6.19  -4.65c
iter: 511 12:14:51 -6802.623782c -5.77  -4.59c
iter: 512 12:23:38 -6802.623785c -5.50  -4.49c
iter: 513 12:32:43 -6802.623776c -6.18  -4.41c
iter: 514 12:41:47 -6802.623782c -6.48  -4.40c
Writing to output.gpw (mode='')

iter: 515 12:50:52 -6802.623766c -6.18  -4.30c
iter: 516 12:59:43 -6802.623766c -6.40  -4.48c
iter: 517 13:09:01 -6802.623782c -6.25  -4.53c
iter: 518 13:17:51 -6802.623765c -6.02  -4.36c
iter: 519 13:26:41 -6802.623780c -5.62  -4.60c
Writing to output.gpw (mode='')

iter: 520 13:35:41 -6802.623771c -6.23  -4.60c
iter: 521 13:44:46 -6802.623774c -6.35  -4.76c
iter: 522 13:53:54 -6802.623773c -6.34  -4.83c
iter: 523 14:03:06 -6802.623772c -6.25  -4.79c
iter: 524 14:12:10 -6802.623773c -6.36  -5.05c
Writing to output.gpw (mode='')

iter: 525 14:21:21 -6802.623772c -6.79  -4.99c
iter: 526 14:30:30 -6802.623772c -7.13  -5.01c
iter: 527 14:39:30 -6802.623772c -6.95  -5.02c
iter: 528 14:48:16 -6802.623773c -7.06  -5.11c
iter: 529 14:56:49 -6802.623773c -6.67  -4.98c
Writing to output.gpw (mode='')

iter: 530 15:05:48 -6802.623774c -6.59  -5.08c
iter: 531 15:14:43 -6802.623776c -6.35  -4.98c
iter: 532 15:23:43 -6802.623780c -6.12  -4.80c
iter: 533 15:32:37 -6802.623775c -6.76  -4.56c
iter: 534 15:41:15 -6802.623775c -7.10  -4.66c
Writing to output.gpw (mode='')

iter: 535 15:50:43 -6802.623778c -7.04  -4.66c
iter: 536 15:59:45 -6802.623774c -6.44  -4.57c
iter: 537 16:08:39 -6802.623781c -6.11  -4.76c
iter: 538 16:17:49 -6802.623775c -6.53  -4.65c
iter: 539 16:26:51 -6802.623776c -6.86  -4.84c
Writing to output.gpw (mode='')

iter: 540 16:35:59 -6802.623777c -6.19  -4.99c
iter: 541 16:44:40 -6802.623783c -6.06  -4.96c
iter: 542 16:53:36 -6802.623788c -5.70  -4.62c
iter: 543 17:02:55 -6802.623775c -6.27  -4.48c
iter: 544 17:12:09 -6802.623775c -6.47  -4.74c
Writing to output.gpw (mode='')

iter: 545 17:20:59 -6802.623777c -5.92  -4.92c
iter: 546 17:29:56 -6802.623778c -6.13  -5.01c
iter: 547 17:39:01 -6802.623778c -6.80  -4.96c
iter: 548 17:47:54 -6802.623778c -6.72  -5.01c
iter: 549 17:55:16 -6802.623778c -6.72  -5.14c
Writing to output.gpw (mode='')

iter: 550 18:04:27 -6802.623779c -6.95  -5.12c
iter: 551 18:13:15 -6802.623779c -6.80  -5.07c
iter: 552 18:22:16 -6802.623779c -7.13  -5.02c
iter: 553 18:31:21 -6802.623780c -6.78  -5.04c
iter: 554 18:40:28 -6802.623780c -7.00  -4.79c
Writing to output.gpw (mode='')

iter: 555 18:49:35 -6802.623779c -6.82  -4.80c
iter: 556 18:58:47 -6802.623779c -6.90  -4.98c
iter: 557 19:07:44 -6802.623780c -7.07  -5.02c
iter: 558 19:16:36 -6802.623785c -6.47  -5.04c
iter: 559 19:25:47 -6802.623782c -6.82  -4.56c
Writing to output.gpw (mode='')

iter: 560 19:34:55 -6802.623780c -6.69  -4.61c
iter: 561 19:44:09 -6802.623781c -6.86  -4.87c
iter: 562 19:53:07 -6802.623782c -7.19  -4.90c
iter: 563 20:01:59 -6802.623782c -7.22  -4.87c
iter: 564 20:10:45 -6802.623782c -6.87  -4.91c
Writing to output.gpw (mode='')

iter: 565 20:19:42 -6802.623786c -6.27  -5.02c
iter: 566 20:28:49 -6802.623784c -6.55  -4.77c
iter: 567 20:37:58 -6802.623784c -6.98  -4.81c
iter: 568 20:47:01 -6802.623784c -6.99  -4.82c
iter: 569 20:56:06 -6802.623784c -6.89  -4.79c
Writing to output.gpw (mode='')

iter: 570 21:04:50 -6802.623813c -5.61  -4.78c
iter: 571 21:13:43 -6802.623780c -5.87  -4.14c
iter: 572 21:22:31 -6802.623779c -6.24  -4.25c
iter: 573 21:31:07 -6802.623779c -6.20  -4.29c
iter: 574 21:39:52 -6802.623780c -6.34  -4.34c
Writing to output.gpw (mode='')

iter: 575 21:48:52 -6802.623780c -6.04  -4.39c
iter: 576 21:57:39 -6802.623781c -5.98  -4.56c
iter: 577 22:06:40 -6802.623785c -5.72  -4.80c
iter: 578 22:15:56 -6802.623789c -5.72  -4.93c
iter: 579 22:25:12 -6802.623791c -5.76  -4.77c
Writing to output.gpw (mode='')

iter: 580 22:34:14 -6802.623786c -6.54  -4.64c
iter: 581 22:43:17 -6802.623786c -6.78  -4.94c
iter: 582 22:52:05 -6802.623787c -6.96  -4.97c
iter: 583 23:01:04 -6802.623787c -6.71  -4.99c
iter: 584 23:10:04 -6802.623788c -6.59  -5.05c
Writing to output.gpw (mode='')

iter: 585 23:18:56 -6802.623789c -6.47  -4.97c
iter: 586 23:28:01 -6802.623789c -6.59  -4.87c
iter: 587 23:36:52 -6802.623789c -7.06  -4.82c
iter: 588 23:45:37 -6802.623789c -7.15  -4.86c
iter: 589 23:54:14 -6802.623790c -6.88  -4.85c
Writing to output.gpw (mode='')

iter: 590 00:03:24 -6802.623789c -6.51  -4.73c
iter: 591 00:12:35 -6802.623791c -6.36  -4.91c
iter: 592 00:21:24 -6802.623791c -6.29  -4.90c
iter: 593 00:30:21 -6802.623792c -6.71  -4.86c
iter: 594 00:39:21 -6802.623791c -6.87  -4.80c
Writing to output.gpw (mode='')

iter: 595 00:48:23 -6802.623793c -7.02  -4.86c
iter: 596 00:57:14 -6802.623791c -6.57  -4.75c
iter: 597 01:06:19 -6802.623792c -7.12  -4.86c
iter: 598 01:15:22 -6802.623794c -6.68  -4.83c
iter: 599 01:24:31 -6802.623793c -7.10  -4.72c
Writing to output.gpw (mode='')

iter: 600 01:33:41 -6802.623797c -6.71  -4.75c
iter: 601 01:42:59 -6802.623793c -6.47  -4.57c
iter: 602 01:52:02 -6802.623803c -6.17  -4.68c
iter: 603 02:00:44 -6802.623792c -5.92  -4.47c
iter: 604 02:09:24 -6802.623794c -6.11  -4.71c
Writing to output.gpw (mode='')

iter: 605 02:18:19 -6802.623796c -5.74  -4.85c
iter: 606 02:27:27 -6802.623819c -5.65  -4.85c
iter: 607 02:36:35 -6802.623828c -5.29  -4.33c
iter: 608 02:45:35 -6802.623815c -5.72  -4.24c
