
  ___ ___ ___ _ _ _  
 |   |   |_  | | | | 
 | | | | | . | | | | 
 |__ |  _|___|_____|  22.8.0
 |___|_|             

User:   vazumah@c11.hercules
Date:   Sun Jan 22 12:42:36 2023
Arch:   x86_64
Pid:    10813
CWD:    /home/vazumah/Python_projects/LiNRR/autocad_start/slab_experiments/fixed_slab_def_vacuum/Rb/bcc110/substrate
Python: 3.10.8
gpaw:   /home/vazumah/.conda/envs/GPAW/lib/python3.10/site-packages/gpaw
_gpaw:  /home/vazumah/.conda/envs/GPAW/lib/python3.10/site-packages/
        _gpaw.cpython-310-x86_64-linux-gnu.so
ase:    /home/vazumah/.conda/envs/GPAW/lib/python3.10/site-packages/ase (version 3.22.1)
numpy:  /home/vazumah/.conda/envs/GPAW/lib/python3.10/site-packages/numpy (version 1.24.1)
scipy:  /home/vazumah/.conda/envs/GPAW/lib/python3.10/site-packages/scipy (version 1.10.0)
libxc:  5.2.3
units:  Angstrom and eV
cores: 24
OpenMP: True
OMP_NUM_THREADS: 1

Input parameters:
  eigensolver: {name: dav,
                niter: 3}
  h: 0.16
  kpts: {size: [2, 4, 1]}
  maxiter: 999
  mixer: {backend: pulay,
          beta: 0.02,
          method: separate,
          nmaxold: 5,
          weight: 100}
  occupations: {name: fermi-dirac,
                width: 0.05}
  poissonsolver: {dipolelayer: xy}
  xc: BEEF-vdW

System changes: positions, numbers, cell, pbc, initial_charges, initial_magmoms 

Initialize ...

species:
  Rb:
    name: Rubidium
    id: f3ee551b8c21dced9198efb7d29049b4
    Z: 37.0
    valence: 9
    core: 28
    charge: 0.0
    file: /home/vazumah/.conda/envs/GPAW/share/gpaw/Rb.PBE.gz
    compensation charges: {type: gauss,
                           rc: 0.38,
                           lmax: 2}
    cutoffs: {filter: 2.43,
              core: 1.99}
    valence states:
      #              energy  rcut
      - 4s(2.00)   -31.879   1.376
      - 5s(1.00)    -2.231   1.376
      - 4p(6.00)   -15.966   1.270
      -  p          11.245   1.270
      -  d           0.000   1.217
  
    # Using partial waves for Rb as LCAO basis

Reference energy: -2919720.687235  # eV

Spin-paired calculation

Convergence criteria:
 Maximum [total energy] change in last 3 cyles: 0.0005 eV / electron
 Maximum integral of absolute [dens]ity change: 0.0001 electrons / valence electron
 Maximum integral of absolute [eigenst]ate change: 4e-08 eV^2 / valence electron
 Maximum number of scf [iter]ations: 999
 (Square brackets indicate name in SCF output, whereas a 'c' in
 the SCF output indicates the quantity has converged.)

Symmetries present (total): 4

  ( 1  0  0)  ( 1  0  0)  (-1  0  0)  (-1  0  0)
  ( 1 -1  0)  ( 0  1  0)  ( 0 -1  0)  (-1  1  0)
  ( 0  0  1)  ( 0  0  1)  ( 0  0  1)  ( 0  0  1)

8 k-points: 2 x 4 x 1 Monkhorst-Pack grid
3 k-points in the irreducible part of the Brillouin zone
       k-points in crystal coordinates                weights
   0:     0.25000000   -0.37500000    0.00000000          2/8
   1:     0.25000000    0.12500000    0.00000000          2/8
   2:     0.25000000    0.37500000    0.00000000          4/8

Wave functions: Uniform real-space grid
  Kinetic energy operator: 8*3+1=25 point O(h^6) finite-difference Laplacian
  ScaLapack parameters: grid=1x1, blocksize=None
  Wavefunction extrapolation:
    Improved wavefunction reuse through dual PAW basis 

Occupation numbers: Fermi-Dirac:
  width: 0.0500  # eV
 

Eigensolver
   Davidson(niter=3) 

Densities:
  Coarse grid: 84*84*200 grid
  Fine grid: 168*168*400 grid
  Total Charge: 0.000000 

Density mixing:
  Method: separate
  Backend: pulay
  Linear mixing parameter: 0.02
  old densities: 5
  Damping of long wavelength oscillations: 100 

Hamiltonian:
  XC and Coulomb potentials evaluated on a 168*168*400 grid
  Using the BEEF-vdW Exchange-Correlation functional
  Interpolation: tri-quintic (5. degree polynomial)
  Poisson solver: FastPoissonSolver using
    Stencil: 8*3+1=25 point O(h^6) finite-difference Laplacian
    FFT axes: [0, 1]
    FST axes: [2]

Dipole correction along z-axis 

XC parameters: BEEF-vdW with 2 nearest neighbor stencil

Memory estimate:
  Process memory now: 208.25 MiB
  Calculator: 1096.37 MiB
    Density: 96.11 MiB
      Arrays: 34.61 MiB
      Localized functions: 48.31 MiB
      Mixer: 13.19 MiB
    Hamiltonian: 26.33 MiB
      Arrays: 22.64 MiB
      XC: 0.00 MiB
      Poisson: 0.00 MiB
      vbar: 3.70 MiB
    Wavefunctions: 973.92 MiB
      Arrays psit_nG: 474.81 MiB
      Eigensolver: 492.95 MiB
      Projections: 0.16 MiB
      Projectors: 6.01 MiB

Total number of cores used: 24
Parallelization over k-points: 3
Domain decomposition: 1 x 2 x 4

Number of atoms: 36
Number of atomic orbitals: 180
Number of bands in calculation: 180
Number of valence electrons: 324
Bands to converge: occupied

... initialized

Initializing position-dependent things.

Density initialized from atomic densities
Creating initial wave functions:
  180 bands from LCAO basis set

                                                                 
                                                                 
                                                                 
                                                                 
                                                                 
                                                                 
                          Rb            Rb           Rb          
                                                                 
                            Rb            Rb            Rb       
                 Rb           Rb            Rb                   
                                                                 
       Rb          RbRb          RbRb         Rb                 
                                                                 
          Rb           Rb            Rb                          
                                                                 
                                                                 
                          Rb            Rb           Rb          
                                                                 
                 Rb         RbRb          RbRb          Rb       
                                                                 
                   Rb            Rb           Rb                 
       Rb            Rb            Rb                            
                                                                 
          Rb           Rb            Rb                          
                                                                 
                                                                 
                                                                 
                                                                 
                                                                 
                                                                 

Positions:
   0 Rb     0.000000    3.952727   10.000000    ( 0.0000,  0.0000,  0.0000)
   1 Rb     5.590000    3.952727   10.000000    ( 0.0000,  0.0000,  0.0000)
   2 Rb    11.180000    3.952727   10.000000    ( 0.0000,  0.0000,  0.0000)
   3 Rb     2.795000    7.905454   10.000000    ( 0.0000,  0.0000,  0.0000)
   4 Rb     8.385000    7.905454   10.000000    ( 0.0000,  0.0000,  0.0000)
   5 Rb    13.975000    7.905454   10.000000    ( 0.0000,  0.0000,  0.0000)
   6 Rb     5.590000   11.858181   10.000000    ( 0.0000,  0.0000,  0.0000)
   7 Rb    11.180000   11.858181   10.000000    ( 0.0000,  0.0000,  0.0000)
   8 Rb    16.770000   11.858181   10.000000    ( 0.0000,  0.0000,  0.0000)
   9 Rb     0.000000    0.000000   13.952727    ( 0.0000,  0.0000,  0.0000)
  10 Rb     5.590000    0.000000   13.952727    ( 0.0000,  0.0000,  0.0000)
  11 Rb    11.180000    0.000000   13.952727    ( 0.0000,  0.0000,  0.0000)
  12 Rb     2.795000    3.952727   13.952727    ( 0.0000,  0.0000,  0.0000)
  13 Rb     8.385000    3.952727   13.952727    ( 0.0000,  0.0000,  0.0000)
  14 Rb    13.975000    3.952727   13.952727    ( 0.0000,  0.0000,  0.0000)
  15 Rb     5.590000    7.905454   13.952727    ( 0.0000,  0.0000,  0.0000)
  16 Rb    11.180000    7.905454   13.952727    ( 0.0000,  0.0000,  0.0000)
  17 Rb    16.770000    7.905454   13.952727    ( 0.0000,  0.0000,  0.0000)
  18 Rb     0.000000    3.952727   17.905454    ( 0.0000,  0.0000,  0.0000)
  19 Rb     5.590000    3.952727   17.905454    ( 0.0000,  0.0000,  0.0000)
  20 Rb    11.180000    3.952727   17.905454    ( 0.0000,  0.0000,  0.0000)
  21 Rb     2.795000    7.905454   17.905454    ( 0.0000,  0.0000,  0.0000)
  22 Rb     8.385000    7.905454   17.905454    ( 0.0000,  0.0000,  0.0000)
  23 Rb    13.975000    7.905454   17.905454    ( 0.0000,  0.0000,  0.0000)
  24 Rb     5.590000   11.858181   17.905454    ( 0.0000,  0.0000,  0.0000)
  25 Rb    11.180000   11.858181   17.905454    ( 0.0000,  0.0000,  0.0000)
  26 Rb    16.770000   11.858181   17.905454    ( 0.0000,  0.0000,  0.0000)
  27 Rb     0.000000    0.000000   21.858181    ( 0.0000,  0.0000,  0.0000)
  28 Rb     5.590000    0.000000   21.858181    ( 0.0000,  0.0000,  0.0000)
  29 Rb    11.180000    0.000000   21.858181    ( 0.0000,  0.0000,  0.0000)
  30 Rb     2.795000    3.952727   21.858181    ( 0.0000,  0.0000,  0.0000)
  31 Rb     8.385000    3.952727   21.858181    ( 0.0000,  0.0000,  0.0000)
  32 Rb    13.975000    3.952727   21.858181    ( 0.0000,  0.0000,  0.0000)
  33 Rb     5.590000    7.905454   21.858181    ( 0.0000,  0.0000,  0.0000)
  34 Rb    11.180000    7.905454   21.858181    ( 0.0000,  0.0000,  0.0000)
  35 Rb    16.770000    7.905454   21.858181    ( 0.0000,  0.0000,  0.0000)

Unit cell:
           periodic     x           y           z      points  spacing
  1. axis:    yes   16.770000    0.000000    0.000000    84     0.1630
  2. axis:    yes    8.385000   11.858181    0.000000    84     0.1412
  3. axis:    no     0.000000    0.000000   31.858181   200     0.1593

  Lengths:  16.770000  14.523246  31.858181
  Angles:   90.000000  90.000000  54.735610

Effective grid spacing dv^(1/3) = 0.1650

     iter     time        total  log10-change:
                         energy  eigst   dens
iter:   1 12:58:17 -3709.785622
iter:   2 13:12:24 -3711.593043  -0.07  -1.38
iter:   3 13:26:31 -3710.622281  -0.55  -1.38
iter:   4 13:40:41 -3710.417498  -0.78  -1.51
Writing to output.gpw (mode='')

iter:   5 13:54:49 -3710.009169  -1.06  -1.62
iter:   6 14:08:56 -3710.192197  -1.60  -1.79
iter:   7 14:23:01 -3710.293625  -1.51  -1.75
iter:   8 14:37:07 -3710.279759c -1.89  -1.86
iter:   9 14:51:27 -3710.288917c -2.07  -2.50
Writing to output.gpw (mode='')

iter:  10 15:05:26 -3710.303042c -2.39  -2.52
iter:  11 15:19:31 -3710.298619c -2.56  -2.44
iter:  12 15:33:22 -3710.301063c -2.91  -2.63
iter:  13 15:47:16 -3710.300883c -2.95  -2.72
iter:  14 16:01:06 -3710.303934c -3.19  -2.69
Writing to output.gpw (mode='')

iter:  15 16:15:06 -3710.311968c -3.16  -2.73
iter:  16 16:28:53 -3710.307437c -3.36  -2.66
iter:  17 16:42:42 -3710.309660c -3.69  -2.79
iter:  18 16:56:29 -3710.306975c -3.77  -2.72
iter:  19 17:10:10 -3710.307239c -3.96  -2.78
Writing to output.gpw (mode='')

iter:  20 17:24:11 -3710.315179c -3.50  -2.77
iter:  21 17:38:02 -3710.311631c -3.82  -2.69
iter:  22 17:51:43 -3710.310633c -4.03  -2.87
iter:  23 18:05:25 -3710.310787c -4.02  -3.05
iter:  24 18:19:22 -3710.310884c -4.40  -3.06
Writing to output.gpw (mode='')

iter:  25 18:33:15 -3710.310879c -4.36  -3.06
iter:  26 18:47:07 -3710.310954c -4.69  -3.05
iter:  27 19:00:57 -3710.311685c -4.81  -3.05
iter:  28 19:14:48 -3710.312730c -4.50  -3.15
iter:  29 19:28:49 -3710.312648c -4.67  -3.45
Writing to output.gpw (mode='')

iter:  30 19:42:50 -3710.312677c -5.05  -3.53
iter:  31 19:56:58 -3710.312737c -5.12  -3.55
iter:  32 20:11:07 -3710.312509c -5.14  -3.63
iter:  33 20:25:21 -3710.312549c -5.38  -3.64
iter:  34 20:39:23 -3710.312558c -5.62  -3.69
Writing to output.gpw (mode='')

iter:  35 20:53:23 -3710.312599c -5.77  -3.72
iter:  36 21:07:25 -3710.312670c -5.69  -3.75
iter:  37 21:21:29 -3710.312731c -5.68  -3.88
iter:  38 21:35:32 -3710.312730c -5.70  -4.00
iter:  39 21:49:26 -3710.312662c -6.19  -4.08c
Writing to output.gpw (mode='')

iter:  40 22:03:25 -3710.312668c -6.33  -4.19c
iter:  41 22:17:20 -3710.312702c -6.35  -4.25c
iter:  42 22:31:08 -3710.312686c -6.57  -4.25c
iter:  43 22:45:10 -3710.312671c -6.66  -4.32c
iter:  44 22:59:05 -3710.312655c -6.87  -4.35c
Writing to output.gpw (mode='')

iter:  45 23:12:51 -3710.312639c -6.88  -4.38c
iter:  46 23:26:32 -3710.312628c -6.93  -4.48c
iter:  47 23:40:43 -3710.312627c -6.93  -4.52c
iter:  48 23:54:52 -3710.312611c -6.77  -4.61c
iter:  49 00:08:49 -3710.312606c -6.84  -4.74c
Writing to output.gpw (mode='')

iter:  50 00:22:47 -3710.312614c -7.15  -4.81c
iter:  51 00:36:39 -3710.312612c -7.31  -4.83c
iter:  52 00:50:46 -3710.312600c -7.23  -4.97c
iter:  53 01:04:51 -3710.312600c -7.13  -5.09c
iter:  54 01:18:48 -3710.312589c -7.41c -5.07c

Converged after 54 iterations.

Dipole moment: (-49.650925, -33.195353, -0.000251) |e|*Ang

Energy contributions relative to reference atoms: (reference = -2919720.687235)

Kinetic:       +340.678749
Potential:     -306.098503
External:        +0.000000
XC:            -3740.936326
Entropy (-ST):   -0.328896
Local:           -3.792060
--------------------------
Free energy:   -3710.477037
Extrapolated:  -3710.312589

Dipole-layer corrected work functions: 2.411961, 2.412190 eV

Showing only first 2 kpts
 Kpt  Band  Eigenvalues  Occupancy
  0   160     -2.37523    0.64738
  0   161     -2.37521    0.64717
  0   162     -2.36771    0.58336
  0   163     -2.27008    0.11042

  1   160     -2.73409    1.99681
  1   161     -2.67369    1.98938
  1   162     -2.50821    1.74488
  1   163     -2.25743    0.08680


Fermi level: -2.41208

No gap
Writing to output.gpw (mode='')


Forces in eV/Ang:
  0 Rb    0.00000    0.00000   -0.08556
  1 Rb    0.00000    0.00000   -0.08556
  2 Rb   -0.00000    0.00000   -0.08556
  3 Rb   -0.00000   -0.00000   -0.08556
  4 Rb    0.00000   -0.00000   -0.08556
  5 Rb    0.00000   -0.00000   -0.08556
  6 Rb   -0.00000    0.00000   -0.08556
  7 Rb    0.00000    0.00000   -0.08556
  8 Rb    0.00000    0.00000   -0.08556
  9 Rb    0.00000    0.00000   -0.02481
 10 Rb    0.00000    0.00000   -0.02481
 11 Rb   -0.00000    0.00000   -0.02481
 12 Rb   -0.00000    0.00000   -0.02481
 13 Rb    0.00000    0.00000   -0.02481
 14 Rb    0.00000    0.00000   -0.02481
 15 Rb    0.00000   -0.00000   -0.02481
 16 Rb   -0.00000   -0.00000   -0.02481
 17 Rb    0.00000   -0.00000   -0.02481
 18 Rb    0.00000    0.00000    0.02480
 19 Rb   -0.00000    0.00000    0.02480
 20 Rb    0.00000    0.00000    0.02480
 21 Rb    0.00000   -0.00000    0.02480
 22 Rb    0.00000   -0.00000    0.02480
 23 Rb   -0.00000   -0.00000    0.02480
 24 Rb   -0.00000    0.00000    0.02480
 25 Rb    0.00000    0.00000    0.02480
 26 Rb    0.00000    0.00000    0.02480
 27 Rb    0.00000    0.00000    0.08560
 28 Rb    0.00000    0.00000    0.08560
 29 Rb   -0.00000    0.00000    0.08560
 30 Rb   -0.00000    0.00000    0.08560
 31 Rb    0.00000    0.00000    0.08560
 32 Rb    0.00000    0.00000    0.08560
 33 Rb    0.00000   -0.00000    0.08560
 34 Rb   -0.00000   -0.00000    0.08560
 35 Rb    0.00000   -0.00000    0.08560

System changes: positions 

Initializing position-dependent things.

Density initialized from wave functions
                                                                 
                                                                 
                                                                 
                                                                 
                                                                 
                                                                 
                          Rb            Rb           Rb          
                                                                 
                            Rb            Rb            Rb       
                 Rb           Rb            Rb                   
                                                                 
       Rb          RbRb          RbRb         Rb                 
                                                                 
          Rb           Rb            Rb                          
                                                                 
                                                                 
                          Rb            Rb           Rb          
                                                                 
                 Rb         RbRb          RbRb          Rb       
                                                                 
                   Rb            Rb           Rb                 
       Rb            Rb            Rb                            
                                                                 
          Rb           Rb            Rb                          
                                                                 
                                                                 
                                                                 
                                                                 
                                                                 
                                                                 

Positions:
   0 Rb     0.000000    3.952727   10.000000    ( 0.0000,  0.0000,  0.0000)
   1 Rb     5.590000    3.952727   10.000000    ( 0.0000,  0.0000,  0.0000)
   2 Rb    11.180000    3.952727   10.000000    ( 0.0000,  0.0000,  0.0000)
   3 Rb     2.795000    7.905454   10.000000    ( 0.0000,  0.0000,  0.0000)
   4 Rb     8.385000    7.905454   10.000000    ( 0.0000,  0.0000,  0.0000)
   5 Rb    13.975000    7.905454   10.000000    ( 0.0000,  0.0000,  0.0000)
   6 Rb     5.590000   11.858181   10.000000    ( 0.0000,  0.0000,  0.0000)
   7 Rb    11.180000   11.858181   10.000000    ( 0.0000,  0.0000,  0.0000)
   8 Rb    16.770000   11.858181   10.000000    ( 0.0000,  0.0000,  0.0000)
   9 Rb     0.000000    0.000000   13.952727    ( 0.0000,  0.0000,  0.0000)
  10 Rb     5.590000    0.000000   13.952727    ( 0.0000,  0.0000,  0.0000)
  11 Rb    11.180000    0.000000   13.952727    ( 0.0000,  0.0000,  0.0000)
  12 Rb     2.795000    3.952727   13.952727    ( 0.0000,  0.0000,  0.0000)
  13 Rb     8.385000    3.952727   13.952727    ( 0.0000,  0.0000,  0.0000)
  14 Rb    13.975000    3.952727   13.952727    ( 0.0000,  0.0000,  0.0000)
  15 Rb     5.590000    7.905454   13.952727    ( 0.0000,  0.0000,  0.0000)
  16 Rb    11.180000    7.905454   13.952727    ( 0.0000,  0.0000,  0.0000)
  17 Rb    16.770000    7.905454   13.952727    ( 0.0000,  0.0000,  0.0000)
  18 Rb     0.000000    3.952727   17.905808    ( 0.0000,  0.0000,  0.0000)
  19 Rb     5.590000    3.952727   17.905808    ( 0.0000,  0.0000,  0.0000)
  20 Rb    11.180000    3.952727   17.905808    ( 0.0000,  0.0000,  0.0000)
  21 Rb     2.795000    7.905454   17.905808    ( 0.0000,  0.0000,  0.0000)
  22 Rb     8.385000    7.905454   17.905808    ( 0.0000,  0.0000,  0.0000)
  23 Rb    13.975000    7.905454   17.905808    ( 0.0000,  0.0000,  0.0000)
  24 Rb     5.590000   11.858181   17.905808    ( 0.0000,  0.0000,  0.0000)
  25 Rb    11.180000   11.858181   17.905808    ( 0.0000,  0.0000,  0.0000)
  26 Rb    16.770000   11.858181   17.905808    ( 0.0000,  0.0000,  0.0000)
  27 Rb     0.000000    0.000000   21.859404    ( 0.0000,  0.0000,  0.0000)
  28 Rb     5.590000    0.000000   21.859404    ( 0.0000,  0.0000,  0.0000)
  29 Rb    11.180000    0.000000   21.859404    ( 0.0000,  0.0000,  0.0000)
  30 Rb     2.795000    3.952727   21.859404    ( 0.0000,  0.0000,  0.0000)
  31 Rb     8.385000    3.952727   21.859404    ( 0.0000,  0.0000,  0.0000)
  32 Rb    13.975000    3.952727   21.859404    ( 0.0000,  0.0000,  0.0000)
  33 Rb     5.590000    7.905454   21.859404    ( 0.0000,  0.0000,  0.0000)
  34 Rb    11.180000    7.905454   21.859404    ( 0.0000,  0.0000,  0.0000)
  35 Rb    16.770000    7.905454   21.859404    ( 0.0000,  0.0000,  0.0000)

Unit cell:
           periodic     x           y           z      points  spacing
  1. axis:    yes   16.770000    0.000000    0.000000    84     0.1630
  2. axis:    yes    8.385000   11.858181    0.000000    84     0.1412
  3. axis:    no     0.000000    0.000000   31.858181   200     0.1593

  Lengths:  16.770000  14.523246  31.858181
  Angles:   90.000000  90.000000  54.735610

Effective grid spacing dv^(1/3) = 0.1650

     iter     time        total  log10-change:
                         energy  eigst   dens
iter:   1 01:34:45 -3710.313677  -5.24
iter:   2 01:48:48 -3710.313665  -6.06  -4.17c
iter:   3 02:02:50 -3710.313650c -6.62  -4.25c
iter:   4 02:16:50 -3710.313615c -7.21  -4.35c
Writing to output.gpw (mode='')

iter:   5 02:30:47 -3710.313620c -7.52c -4.69c

Converged after 5 iterations.

Dipole moment: (-49.650860, -33.195280, 0.000002) |e|*Ang

Energy contributions relative to reference atoms: (reference = -2919720.687235)

Kinetic:       +340.616166
Potential:     -306.056941
External:        +0.000000
XC:            -3740.932269
Entropy (-ST):   -0.328880
Local:           -3.776136
--------------------------
Free energy:   -3710.478060
Extrapolated:  -3710.313620

Dipole-layer corrected work functions: 2.413140, 2.413138 eV

Showing only first 2 kpts
 Kpt  Band  Eigenvalues  Occupancy
  0   160     -2.37629    0.64729
  0   161     -2.37626    0.64709
  0   162     -2.36877    0.58333
  0   163     -2.27115    0.11042

  1   160     -2.73520    1.99682
  1   161     -2.67479    1.98938
  1   162     -2.50928    1.74489
  1   163     -2.25847    0.08676


Fermi level: -2.41314

No gap

Forces in eV/Ang:
  0 Rb    0.00000    0.00000   -0.08697
  1 Rb    0.00000    0.00000   -0.08697
  2 Rb   -0.00000    0.00000   -0.08697
  3 Rb   -0.00000   -0.00000   -0.08697
  4 Rb    0.00000   -0.00000   -0.08697
  5 Rb    0.00000   -0.00000   -0.08697
  6 Rb   -0.00000    0.00000   -0.08697
  7 Rb    0.00000    0.00000   -0.08697
  8 Rb    0.00000    0.00000   -0.08697
  9 Rb    0.00000    0.00000   -0.02491
 10 Rb    0.00000    0.00000   -0.02491
 11 Rb   -0.00000    0.00000   -0.02491
 12 Rb   -0.00000    0.00000   -0.02491
 13 Rb    0.00000    0.00000   -0.02491
 14 Rb    0.00000    0.00000   -0.02491
 15 Rb    0.00000   -0.00000   -0.02491
 16 Rb   -0.00000   -0.00000   -0.02491
 17 Rb    0.00000   -0.00000   -0.02491
 18 Rb    0.00000    0.00000    0.02357
 19 Rb   -0.00000    0.00000    0.02357
 20 Rb    0.00000    0.00000    0.02357
 21 Rb    0.00000   -0.00000    0.02357
 22 Rb    0.00000   -0.00000    0.02357
 23 Rb   -0.00000   -0.00000    0.02357
 24 Rb   -0.00000    0.00000    0.02357
 25 Rb    0.00000    0.00000    0.02357
 26 Rb    0.00000    0.00000    0.02357
 27 Rb    0.00000    0.00000    0.08465
 28 Rb    0.00000    0.00000    0.08465
 29 Rb   -0.00000    0.00000    0.08465
 30 Rb   -0.00000    0.00000    0.08465
 31 Rb   -0.00000    0.00000    0.08465
 32 Rb    0.00000    0.00000    0.08465
 33 Rb    0.00000   -0.00000    0.08465
 34 Rb   -0.00000   -0.00000    0.08465
 35 Rb   -0.00000   -0.00000    0.08465

System changes: positions 

Initializing position-dependent things.

Density initialized from wave functions
                                                                 
                                                                 
                                                                 
                                                                 
                                                                 
                                                                 
                          Rb            Rb           Rb          
                                                                 
                            Rb            Rb            Rb       
                 Rb           Rb            Rb                   
                                                                 
       Rb          RbRb          RbRb         Rb                 
                                                                 
          Rb           Rb            Rb                          
                                                                 
                                                                 
                          Rb            Rb           Rb          
                                                                 
                 Rb         RbRb          RbRb          Rb       
                                                                 
                   Rb            Rb           Rb                 
       Rb            Rb            Rb                            
                                                                 
          Rb           Rb            Rb                          
                                                                 
                                                                 
                                                                 
                                                                 
                                                                 
                                                                 

Positions:
   0 Rb     0.000000    3.952727   10.000000    ( 0.0000,  0.0000,  0.0000)
   1 Rb     5.590000    3.952727   10.000000    ( 0.0000,  0.0000,  0.0000)
   2 Rb    11.180000    3.952727   10.000000    ( 0.0000,  0.0000,  0.0000)
   3 Rb     2.795000    7.905454   10.000000    ( 0.0000,  0.0000,  0.0000)
   4 Rb     8.385000    7.905454   10.000000    ( 0.0000,  0.0000,  0.0000)
   5 Rb    13.975000    7.905454   10.000000    ( 0.0000,  0.0000,  0.0000)
   6 Rb     5.590000   11.858181   10.000000    ( 0.0000,  0.0000,  0.0000)
   7 Rb    11.180000   11.858181   10.000000    ( 0.0000,  0.0000,  0.0000)
   8 Rb    16.770000   11.858181   10.000000    ( 0.0000,  0.0000,  0.0000)
   9 Rb     0.000000    0.000000   13.952727    ( 0.0000,  0.0000,  0.0000)
  10 Rb     5.590000    0.000000   13.952727    ( 0.0000,  0.0000,  0.0000)
  11 Rb    11.180000    0.000000   13.952727    ( 0.0000,  0.0000,  0.0000)
  12 Rb     2.795000    3.952727   13.952727    ( 0.0000,  0.0000,  0.0000)
  13 Rb     8.385000    3.952727   13.952727    ( 0.0000,  0.0000,  0.0000)
  14 Rb    13.975000    3.952727   13.952727    ( 0.0000,  0.0000,  0.0000)
  15 Rb     5.590000    7.905454   13.952727    ( 0.0000,  0.0000,  0.0000)
  16 Rb    11.180000    7.905454   13.952727    ( 0.0000,  0.0000,  0.0000)
  17 Rb    16.770000    7.905454   13.952727    ( 0.0000,  0.0000,  0.0000)
  18 Rb     0.000000    3.952727   17.908593    ( 0.0000,  0.0000,  0.0000)
  19 Rb     5.590000    3.952727   17.908593    ( 0.0000,  0.0000,  0.0000)
  20 Rb    11.180000    3.952727   17.908593    ( 0.0000,  0.0000,  0.0000)
  21 Rb     2.795000    7.905454   17.908593    ( 0.0000,  0.0000,  0.0000)
  22 Rb     8.385000    7.905454   17.908593    ( 0.0000,  0.0000,  0.0000)
  23 Rb    13.975000    7.905454   17.908593    ( 0.0000,  0.0000,  0.0000)
  24 Rb     5.590000   11.858181   17.908593    ( 0.0000,  0.0000,  0.0000)
  25 Rb    11.180000   11.858181   17.908593    ( 0.0000,  0.0000,  0.0000)
  26 Rb    16.770000   11.858181   17.908593    ( 0.0000,  0.0000,  0.0000)
  27 Rb     0.000000   -0.000000   21.869404    ( 0.0000,  0.0000,  0.0000)
  28 Rb     5.590000    0.000000   21.869404    ( 0.0000,  0.0000,  0.0000)
  29 Rb    11.180000    0.000000   21.869404    ( 0.0000,  0.0000,  0.0000)
  30 Rb     2.795000    3.952727   21.869404    ( 0.0000,  0.0000,  0.0000)
  31 Rb     8.385000    3.952727   21.869404    ( 0.0000,  0.0000,  0.0000)
  32 Rb    13.975000    3.952727   21.869404    ( 0.0000,  0.0000,  0.0000)
  33 Rb     5.590000    7.905454   21.869404    ( 0.0000,  0.0000,  0.0000)
  34 Rb    11.180000    7.905454   21.869404    ( 0.0000,  0.0000,  0.0000)
  35 Rb    16.770000    7.905454   21.869404    ( 0.0000,  0.0000,  0.0000)

Unit cell:
           periodic     x           y           z      points  spacing
  1. axis:    yes   16.770000    0.000000    0.000000    84     0.1630
  2. axis:    yes    8.385000   11.858181    0.000000    84     0.1412
  3. axis:    no     0.000000    0.000000   31.858181   200     0.1593

  Lengths:  16.770000  14.523246  31.858181
  Angles:   90.000000  90.000000  54.735610

Effective grid spacing dv^(1/3) = 0.1650

     iter     time        total  log10-change:
                         energy  eigst   dens
iter:   1 02:46:26 -3710.321410  -3.46
iter:   2 03:00:24 -3710.321377  -4.61  -3.52
iter:   3 03:14:23 -3710.321377c -5.14  -3.84
iter:   4 03:28:18 -3710.321312c -5.64  -3.88
Writing to output.gpw (mode='')

iter:   5 03:42:41 -3710.321303c -5.91  -4.02c
iter:   6 03:56:38 -3710.321355c -5.96  -4.04c
iter:   7 04:10:25 -3710.321312c -6.07  -4.12c
iter:   8 04:24:26 -3710.321307c -6.38  -4.04c
iter:   9 04:38:25 -3710.321319c -6.54  -4.43c
Writing to output.gpw (mode='')

iter:  10 04:52:08 -3710.321322c -6.96  -4.59c
iter:  11 05:06:05 -3710.321322c -7.31  -4.66c
iter:  12 05:20:10 -3710.321326c -7.12  -4.58c
iter:  13 05:33:59 -3710.321325c -7.37  -4.62c
iter:  14 05:47:59 -3710.321324c -7.75c -4.82c

Converged after 14 iterations.

Dipole moment: (-49.650965, -33.195290, -0.000448) |e|*Ang

Energy contributions relative to reference atoms: (reference = -2919720.687235)

Kinetic:       +340.258213
Potential:     -305.776759
External:        +0.000000
XC:            -3740.875307
Entropy (-ST):   -0.329452
Local:           -3.762745
--------------------------
Free energy:   -3710.486050
Extrapolated:  -3710.321324

Dipole-layer corrected work functions: 2.413252, 2.413659 eV

Showing only first 2 kpts
 Kpt  Band  Eigenvalues  Occupancy
  0   160     -2.37756    0.65573
  0   161     -2.37754    0.65552
  0   162     -2.37011    0.59177
  0   163     -2.27069    0.10881

  1   160     -2.73504    1.99679
  1   161     -2.67621    1.98961
  1   162     -2.50881    1.74141
  1   163     -2.25906    0.08722


Fermi level: -2.41346

No gap
Writing to output.gpw (mode='')


Forces in eV/Ang:
  0 Rb    0.00000    0.00000   -0.08629
  1 Rb    0.00000    0.00000   -0.08629
  2 Rb   -0.00000    0.00000   -0.08629
  3 Rb   -0.00000   -0.00000   -0.08629
  4 Rb    0.00000   -0.00000   -0.08629
  5 Rb    0.00000   -0.00000   -0.08629
  6 Rb   -0.00000    0.00000   -0.08629
  7 Rb    0.00000    0.00000   -0.08629
  8 Rb    0.00000    0.00000   -0.08629
  9 Rb    0.00000    0.00000   -0.02477
 10 Rb    0.00000    0.00000   -0.02477
 11 Rb   -0.00000    0.00000   -0.02477
 12 Rb   -0.00000    0.00000   -0.02477
 13 Rb   -0.00000    0.00000   -0.02477
 14 Rb    0.00000    0.00000   -0.02477
 15 Rb    0.00000   -0.00000   -0.02477
 16 Rb   -0.00000   -0.00000   -0.02477
 17 Rb    0.00000   -0.00000   -0.02477
 18 Rb    0.00000    0.00000    0.02046
 19 Rb    0.00000    0.00000    0.02046
 20 Rb   -0.00000    0.00000    0.02046
 21 Rb   -0.00000   -0.00000    0.02046
 22 Rb    0.00000   -0.00000    0.02046
 23 Rb    0.00000   -0.00000    0.02046
 24 Rb    0.00000    0.00000    0.02046
 25 Rb   -0.00000    0.00000    0.02046
 26 Rb    0.00000    0.00000    0.02046
 27 Rb    0.00000    0.00000    0.07855
 28 Rb   -0.00000    0.00000    0.07855
 29 Rb    0.00000    0.00000    0.07855
 30 Rb   -0.00000    0.00000    0.07855
 31 Rb   -0.00000    0.00000    0.07855
 32 Rb    0.00000    0.00000    0.07855
 33 Rb    0.00000   -0.00000    0.07855
 34 Rb   -0.00000   -0.00000    0.07855
 35 Rb   -0.00000   -0.00000    0.07855

System changes: positions 

Initializing position-dependent things.

Density initialized from wave functions
                                                                 
                                                                 
                                                                 
                                                                 
                                                                 
                                                                 
                          Rb            Rb           Rb          
                                                                 
                                                                 
                 Rb         RbRb          RbRb          Rb       
                                                                 
       Rb          RbRb          RbRb         Rb                 
                                                                 
                                                                 
          Rb           Rb            Rb                          
                                                                 
                          Rb            Rb           Rb          
                                                                 
                                                                 
                 Rb         RbRb          RbRb          Rb       
                                                                 
       Rb          RbRb          RbRb         Rb                 
                                                                 
                                                                 
          Rb           Rb            Rb                          
                                                                 
                                                                 
                                                                 
                                                                 
                                                                 
                                                                 

Positions:
   0 Rb     0.000000    3.952727   10.000000    ( 0.0000,  0.0000,  0.0000)
   1 Rb     5.590000    3.952727   10.000000    ( 0.0000,  0.0000,  0.0000)
   2 Rb    11.180000    3.952727   10.000000    ( 0.0000,  0.0000,  0.0000)
   3 Rb     2.795000    7.905454   10.000000    ( 0.0000,  0.0000,  0.0000)
   4 Rb     8.385000    7.905454   10.000000    ( 0.0000,  0.0000,  0.0000)
   5 Rb    13.975000    7.905454   10.000000    ( 0.0000,  0.0000,  0.0000)
   6 Rb     5.590000   11.858181   10.000000    ( 0.0000,  0.0000,  0.0000)
   7 Rb    11.180000   11.858181   10.000000    ( 0.0000,  0.0000,  0.0000)
   8 Rb    16.770000   11.858181   10.000000    ( 0.0000,  0.0000,  0.0000)
   9 Rb     0.000000    0.000000   13.952727    ( 0.0000,  0.0000,  0.0000)
  10 Rb     5.590000    0.000000   13.952727    ( 0.0000,  0.0000,  0.0000)
  11 Rb    11.180000    0.000000   13.952727    ( 0.0000,  0.0000,  0.0000)
  12 Rb     2.795000    3.952727   13.952727    ( 0.0000,  0.0000,  0.0000)
  13 Rb     8.385000    3.952727   13.952727    ( 0.0000,  0.0000,  0.0000)
  14 Rb    13.975000    3.952727   13.952727    ( 0.0000,  0.0000,  0.0000)
  15 Rb     5.590000    7.905454   13.952727    ( 0.0000,  0.0000,  0.0000)
  16 Rb    11.180000    7.905454   13.952727    ( 0.0000,  0.0000,  0.0000)
  17 Rb    16.770000    7.905454   13.952727    ( 0.0000,  0.0000,  0.0000)
  18 Rb     0.000000    3.952727   17.911357    ( 0.0000,  0.0000,  0.0000)
  19 Rb     5.590000    3.952727   17.911357    ( 0.0000,  0.0000,  0.0000)
  20 Rb    11.180000    3.952727   17.911357    ( 0.0000,  0.0000,  0.0000)
  21 Rb     2.795000    7.905454   17.911357    ( 0.0000,  0.0000,  0.0000)
  22 Rb     8.385000    7.905454   17.911357    ( 0.0000,  0.0000,  0.0000)
  23 Rb    13.975000    7.905454   17.911357    ( 0.0000,  0.0000,  0.0000)
  24 Rb     5.590000   11.858181   17.911357    ( 0.0000,  0.0000,  0.0000)
  25 Rb    11.180000   11.858181   17.911357    ( 0.0000,  0.0000,  0.0000)
  26 Rb    16.770000   11.858181   17.911357    ( 0.0000,  0.0000,  0.0000)
  27 Rb     0.000000   -0.000000   21.879404    ( 0.0000,  0.0000,  0.0000)
  28 Rb     5.590000   -0.000000   21.879404    ( 0.0000,  0.0000,  0.0000)
  29 Rb    11.180000    0.000000   21.879404    ( 0.0000,  0.0000,  0.0000)
  30 Rb     2.795000    3.952727   21.879404    ( 0.0000,  0.0000,  0.0000)
  31 Rb     8.385000    3.952727   21.879404    ( 0.0000,  0.0000,  0.0000)
  32 Rb    13.975000    3.952727   21.879404    ( 0.0000,  0.0000,  0.0000)
  33 Rb     5.590000    7.905454   21.879404    ( 0.0000,  0.0000,  0.0000)
  34 Rb    11.180000    7.905454   21.879404    ( 0.0000,  0.0000,  0.0000)
  35 Rb    16.770000    7.905454   21.879404    ( 0.0000,  0.0000,  0.0000)

Unit cell:
           periodic     x           y           z      points  spacing
  1. axis:    yes   16.770000    0.000000    0.000000    84     0.1630
  2. axis:    yes    8.385000   11.858181    0.000000    84     0.1412
  3. axis:    no     0.000000    0.000000   31.858181   200     0.1593

  Lengths:  16.770000  14.523246  31.858181
  Angles:   90.000000  90.000000  54.735610

Effective grid spacing dv^(1/3) = 0.1650

     iter     time        total  log10-change:
                         energy  eigst   dens
iter:   1 06:03:43 -3710.328293  -3.45
iter:   2 06:17:35 -3710.328252  -4.62  -3.51
iter:   3 06:31:46 -3710.328256c -5.14  -3.90
iter:   4 06:45:51 -3710.328189c -5.64  -3.95
Writing to output.gpw (mode='')

iter:   5 06:59:49 -3710.328155c -5.95  -4.04c
iter:   6 07:13:30 -3710.328187c -6.04  -4.03c
iter:   7 07:27:24 -3710.328171c -6.25  -4.19c
iter:   8 07:41:25 -3710.328156c -6.63  -4.19c
iter:   9 07:55:29 -3710.328170c -6.57  -4.42c
Writing to output.gpw (mode='')

iter:  10 08:09:33 -3710.328172c -7.33  -4.57c
iter:  11 08:23:33 -3710.328178c -7.26  -4.60c
iter:  12 08:37:10 -3710.328178c -7.53c -4.77c

Converged after 12 iterations.

Dipole moment: (-49.650980, -33.195245, -0.000467) |e|*Ang

Energy contributions relative to reference atoms: (reference = -2919720.687235)

Kinetic:       +340.018139
Potential:     -305.602725
External:        +0.000000
XC:            -3740.829478
Entropy (-ST):   -0.329997
Local:           -3.749115
--------------------------
Free energy:   -3710.493177
Extrapolated:  -3710.328178

Dipole-layer corrected work functions: 2.413523, 2.413948 eV

Showing only first 2 kpts
 Kpt  Band  Eigenvalues  Occupancy
  0   160     -2.37880    0.66421
  0   161     -2.37878    0.66400
  0   162     -2.37140    0.60026
  0   163     -2.27011    0.10706

  1   160     -2.73499    1.99676
  1   161     -2.67757    1.98983
  1   162     -2.50824    1.73755
  1   163     -2.25960    0.08765


Fermi level: -2.41374

No gap
Writing to output.gpw (mode='')


Forces in eV/Ang:
  0 Rb   -0.00000    0.00000   -0.08689
  1 Rb    0.00000    0.00000   -0.08689
  2 Rb   -0.00000    0.00000   -0.08689
  3 Rb   -0.00000   -0.00000   -0.08689
  4 Rb    0.00000   -0.00000   -0.08689
  5 Rb    0.00000   -0.00000   -0.08689
  6 Rb   -0.00000    0.00000   -0.08689
  7 Rb    0.00000    0.00000   -0.08689
  8 Rb    0.00000    0.00000   -0.08689
  9 Rb    0.00000    0.00000   -0.02301
 10 Rb   -0.00000    0.00000   -0.02301
 11 Rb    0.00000    0.00000   -0.02301
 12 Rb   -0.00000    0.00000   -0.02301
 13 Rb    0.00000    0.00000   -0.02301
 14 Rb    0.00000    0.00000   -0.02301
 15 Rb    0.00000   -0.00000   -0.02301
 16 Rb   -0.00000   -0.00000   -0.02301
 17 Rb    0.00000   -0.00000   -0.02301
 18 Rb    0.00000   -0.00000    0.01554
 19 Rb   -0.00000   -0.00000    0.01554
 20 Rb    0.00000   -0.00000    0.01554
 21 Rb    0.00000    0.00000    0.01554
 22 Rb    0.00000    0.00000    0.01554
 23 Rb   -0.00000    0.00000    0.01554
 24 Rb    0.00000    0.00000    0.01554
 25 Rb   -0.00000    0.00000    0.01554
 26 Rb    0.00000    0.00000    0.01554
 27 Rb    0.00000    0.00000    0.06759
 28 Rb    0.00000    0.00000    0.06759
 29 Rb   -0.00000    0.00000    0.06759
 30 Rb   -0.00000    0.00000    0.06759
 31 Rb   -0.00000    0.00000    0.06759
 32 Rb    0.00000    0.00000    0.06759
 33 Rb    0.00000   -0.00000    0.06759
 34 Rb   -0.00000   -0.00000    0.06759
 35 Rb   -0.00000   -0.00000    0.06759

System changes: positions 

Initializing position-dependent things.

Density initialized from wave functions
                                                                 
                                                                 
                                                                 
                                                                 
                                                                 
                                                                 
                          Rb            Rb           Rb          
                                                                 
                                                                 
                 Rb         RbRb          RbRb          Rb       
                                                                 
       Rb          RbRb          RbRb         Rb                 
                                                                 
                                                                 
          Rb           Rb            Rb                          
                                                                 
                          Rb            Rb           Rb          
                                                                 
                                                                 
                 Rb         RbRb          RbRb          Rb       
                                                                 
       Rb          RbRb          RbRb         Rb                 
                                                                 
                                                                 
          Rb           Rb            Rb                          
                                                                 
                                                                 
                                                                 
                                                                 
                                                                 
                                                                 

Positions:
   0 Rb     0.000000    3.952727   10.000000    ( 0.0000,  0.0000,  0.0000)
   1 Rb     5.590000    3.952727   10.000000    ( 0.0000,  0.0000,  0.0000)
   2 Rb    11.180000    3.952727   10.000000    ( 0.0000,  0.0000,  0.0000)
   3 Rb     2.795000    7.905454   10.000000    ( 0.0000,  0.0000,  0.0000)
   4 Rb     8.385000    7.905454   10.000000    ( 0.0000,  0.0000,  0.0000)
   5 Rb    13.975000    7.905454   10.000000    ( 0.0000,  0.0000,  0.0000)
   6 Rb     5.590000   11.858181   10.000000    ( 0.0000,  0.0000,  0.0000)
   7 Rb    11.180000   11.858181   10.000000    ( 0.0000,  0.0000,  0.0000)
   8 Rb    16.770000   11.858181   10.000000    ( 0.0000,  0.0000,  0.0000)
   9 Rb     0.000000    0.000000   13.952727    ( 0.0000,  0.0000,  0.0000)
  10 Rb     5.590000    0.000000   13.952727    ( 0.0000,  0.0000,  0.0000)
  11 Rb    11.180000    0.000000   13.952727    ( 0.0000,  0.0000,  0.0000)
  12 Rb     2.795000    3.952727   13.952727    ( 0.0000,  0.0000,  0.0000)
  13 Rb     8.385000    3.952727   13.952727    ( 0.0000,  0.0000,  0.0000)
  14 Rb    13.975000    3.952727   13.952727    ( 0.0000,  0.0000,  0.0000)
  15 Rb     5.590000    7.905454   13.952727    ( 0.0000,  0.0000,  0.0000)
  16 Rb    11.180000    7.905454   13.952727    ( 0.0000,  0.0000,  0.0000)
  17 Rb    16.770000    7.905454   13.952727    ( 0.0000,  0.0000,  0.0000)
  18 Rb     0.000000    3.952727   17.914086    ( 0.0000,  0.0000,  0.0000)
  19 Rb     5.590000    3.952727   17.914086    ( 0.0000,  0.0000,  0.0000)
  20 Rb    11.180000    3.952727   17.914086    ( 0.0000,  0.0000,  0.0000)
  21 Rb     2.795000    7.905454   17.914086    ( 0.0000,  0.0000,  0.0000)
  22 Rb     8.385000    7.905454   17.914086    ( 0.0000,  0.0000,  0.0000)
  23 Rb    13.975000    7.905454   17.914086    ( 0.0000,  0.0000,  0.0000)
  24 Rb     5.590000   11.858181   17.914086    ( 0.0000,  0.0000,  0.0000)
  25 Rb    11.180000   11.858181   17.914086    ( 0.0000,  0.0000,  0.0000)
  26 Rb    16.770000   11.858181   17.914086    ( 0.0000,  0.0000,  0.0000)
  27 Rb     0.000000   -0.000000   21.889404    ( 0.0000,  0.0000,  0.0000)
  28 Rb     5.590000   -0.000000   21.889404    ( 0.0000,  0.0000,  0.0000)
  29 Rb    11.180000    0.000000   21.889404    ( 0.0000,  0.0000,  0.0000)
  30 Rb     2.795000    3.952727   21.889404    ( 0.0000,  0.0000,  0.0000)
  31 Rb     8.385000    3.952727   21.889404    ( 0.0000,  0.0000,  0.0000)
  32 Rb    13.975000    3.952727   21.889404    ( 0.0000,  0.0000,  0.0000)
  33 Rb     5.590000    7.905454   21.889404    ( 0.0000,  0.0000,  0.0000)
  34 Rb    11.180000    7.905454   21.889404    ( 0.0000,  0.0000,  0.0000)
  35 Rb    16.770000    7.905454   21.889404    ( 0.0000,  0.0000,  0.0000)

Unit cell:
           periodic     x           y           z      points  spacing
  1. axis:    yes   16.770000    0.000000    0.000000    84     0.1630
  2. axis:    yes    8.385000   11.858181    0.000000    84     0.1412
  3. axis:    no     0.000000    0.000000   31.858181   200     0.1593

  Lengths:  16.770000  14.523246  31.858181
  Angles:   90.000000  90.000000  54.735610

Effective grid spacing dv^(1/3) = 0.1650

     iter     time        total  log10-change:
                         energy  eigst   dens
iter:   1 08:52:46 -3710.333678  -3.45
iter:   2 09:06:48 -3710.333648  -4.59  -3.51
iter:   3 09:20:50 -3710.333630c -5.05  -3.73
iter:   4 09:34:30 -3710.333514c -5.62  -3.80
Writing to output.gpw (mode='')

iter:   5 09:48:15 -3710.333521c -5.93  -3.97
iter:   6 10:02:25 -3710.333538c -5.90  -4.02c
iter:   7 10:16:28 -3710.333489c -6.08  -4.03c
iter:   8 10:30:39 -3710.333488c -6.44  -4.11c
iter:   9 10:44:42 -3710.333486c -6.35  -4.34c
Writing to output.gpw (mode='')

iter:  10 10:58:57 -3710.333487c -7.09  -4.52c
iter:  11 11:12:58 -3710.333487c -7.27  -4.63c
iter:  12 11:26:36 -3710.333490c -7.41c -4.57c

Converged after 12 iterations.

Dipole moment: (-49.651224, -33.195321, -0.000681) |e|*Ang

Energy contributions relative to reference atoms: (reference = -2919720.687235)

Kinetic:       +339.445420
Potential:     -305.121647
External:        +0.000000
XC:            -3740.764268
Entropy (-ST):   -0.330573
Local:           -3.727709
--------------------------
Free energy:   -3710.498777
Extrapolated:  -3710.333490

Dipole-layer corrected work functions: 2.413349, 2.413969 eV

Showing only first 2 kpts
 Kpt  Band  Eigenvalues  Occupancy
  0   160     -2.37970    0.67289
  0   161     -2.37968    0.67269
  0   162     -2.37236    0.60896
  0   163     -2.26919    0.10536

  1   160     -2.73445    1.99673
  1   161     -2.67859    1.99005
  1   162     -2.50732    1.73367
  1   163     -2.25984    0.08819


Fermi level: -2.41366

No gap
Writing to output.gpw (mode='')


Forces in eV/Ang:
  0 Rb    0.00000    0.00000   -0.08499
  1 Rb    0.00000    0.00000   -0.08499
  2 Rb   -0.00000    0.00000   -0.08499
  3 Rb   -0.00000   -0.00000   -0.08499
  4 Rb    0.00000   -0.00000   -0.08499
  5 Rb    0.00000   -0.00000   -0.08499
  6 Rb   -0.00000    0.00000   -0.08499
  7 Rb    0.00000    0.00000   -0.08499
  8 Rb    0.00000    0.00000   -0.08499
  9 Rb    0.00000    0.00000   -0.02389
 10 Rb    0.00000    0.00000   -0.02389
 11 Rb   -0.00000    0.00000   -0.02389
 12 Rb   -0.00000    0.00000   -0.02389
 13 Rb    0.00000   -0.00000   -0.02389
 14 Rb    0.00000    0.00000   -0.02389
 15 Rb    0.00000   -0.00000   -0.02389
 16 Rb   -0.00000   -0.00000   -0.02389
 17 Rb    0.00000    0.00000   -0.02389
 18 Rb    0.00000   -0.00000    0.01410
 19 Rb   -0.00000    0.00000    0.01410
 20 Rb    0.00000    0.00000    0.01410
 21 Rb    0.00000   -0.00000    0.01410
 22 Rb    0.00000    0.00000    0.01410
 23 Rb   -0.00000   -0.00000    0.01410
 24 Rb   -0.00000    0.00000    0.01410
 25 Rb    0.00000    0.00000    0.01410
 26 Rb    0.00000    0.00000    0.01410
 27 Rb    0.00000    0.00000    0.04820
 28 Rb    0.00000    0.00000    0.04820
 29 Rb   -0.00000    0.00000    0.04820
 30 Rb   -0.00000    0.00000    0.04820
 31 Rb    0.00000    0.00000    0.04820
 32 Rb    0.00000    0.00000    0.04820
 33 Rb    0.00000   -0.00000    0.04820
 34 Rb   -0.00000   -0.00000    0.04820
 35 Rb    0.00000   -0.00000    0.04820

Timing:                                      incl.     excl.
-------------------------------------------------------------------
Density initialized from wave functions:    12.761     8.110   0.0% |
 Symmetrize density:                         4.651     4.651   0.0% |
Forces:                                    124.702   124.702   0.2% |
Hamiltonian:                               849.090     0.001   0.0% |
 Atomic:                                     2.159     0.473   0.0% |
  XC Correction:                             1.685     1.685   0.0% |
 Calculate atomic Hamiltonians:              1.721     1.721   0.0% |
 Communicate:                                2.893     2.893   0.0% |
 Hartree integrate/restrict:                 1.175     1.175   0.0% |
 Initialize Hamiltonian:                     0.000     0.000   0.0% |
 Poisson:                                   21.248     8.486   0.0% |
  Communicate from 1D:                       2.194     2.194   0.0% |
  Communicate from 2D:                       2.992     2.992   0.0% |
  Communicate to 1D:                         1.658     1.658   0.0% |
  Communicate to 2D:                         2.646     2.646   0.0% |
  FFT 1D:                                    1.460     1.460   0.0% |
  FFT 2D:                                    1.811     1.811   0.0% |
 XC 3D grid:                               819.690    54.452   0.1% |
  VdW-DF integral:                         765.239     1.983   0.0% |
   Convolution:                             56.312    56.312   0.1% |
   FFT:                                     10.533    10.533   0.0% |
   gather:                                 548.486   548.486   0.7% |
   hmm1:                                    10.648    10.648   0.0% |
   hmm2:                                    16.847    16.847   0.0% |
   iFFT:                                    11.811    11.811   0.0% |
   potential:                               90.859     0.673   0.0% |
    collect:                                11.497    11.497   0.0% |
    p1:                                     37.404    37.404   0.0% |
    p2:                                     24.574    24.574   0.0% |
    sum:                                    16.712    16.712   0.0% |
   splines:                                 17.759    17.759   0.0% |
 vbar:                                       0.203     0.203   0.0% |
LCAO initialization:                        23.848     0.058   0.0% |
 LCAO eigensolver:                           0.776     0.001   0.0% |
  Calculate projections:                     0.000     0.000   0.0% |
  DenseAtomicCorrection:                     0.000     0.000   0.0% |
  Distribute overlap matrix:                 0.533     0.533   0.0% |
  Orbital Layouts:                           0.208     0.208   0.0% |
  Potential matrix:                          0.024     0.024   0.0% |
  Sum over cells:                            0.010     0.010   0.0% |
 LCAO to grid:                              22.670    22.670   0.0% |
 Set positions (LCAO WFS):                   0.345     0.175   0.0% |
  Basic WFS set positions:                   0.012     0.012   0.0% |
  Basis functions set positions:             0.001     0.001   0.0% |
  P tci:                                     0.011     0.011   0.0% |
  ST tci:                                    0.036     0.036   0.0% |
  mktci:                                     0.110     0.110   0.0% |
Redistribute:                                0.004     0.004   0.0% |
SCF-cycle:                               80687.874   417.354   0.5% |
 Davidson:                               64449.607 16659.296  20.3% |-------|
  Apply hamiltonian:                      3152.400  3152.400   3.9% |-|
  Subspace diag:                          8750.809     0.020   0.0% |
   calc_h_matrix:                         3041.306  1490.043   1.8% ||
    Apply hamiltonian:                    1551.263  1551.263   1.9% ||
   diagonalize:                            172.601   172.601   0.2% |
   rotate_psi:                            5536.882  5536.882   6.8% |--|
  calc. matrices:                        20128.003 15529.725  19.0% |-------|
   Apply hamiltonian:                     4598.278  4598.278   5.6% |-|
  diagonalize:                             164.148   164.148   0.2% |
  rotate_psi:                            15594.950 15594.950  19.0% |-------|
 Density:                                  285.530     0.012   0.0% |
  Atomic density matrices:                  19.722    19.722   0.0% |
  Mix:                                      32.806    32.806   0.0% |
  Multipole moments:                         0.291     0.291   0.0% |
  Pseudo density:                          232.699   124.278   0.2% |
   Symmetrize density:                     108.421   108.421   0.1% |
 Hamiltonian:                            15313.612     0.030   0.0% |
  Atomic:                                   41.631     9.045   0.0% |
   XC Correction:                           32.586    32.586   0.0% |
  Calculate atomic Hamiltonians:            33.125    33.125   0.0% |
  Communicate:                              49.819    49.819   0.1% |
  Hartree integrate/restrict:               23.119    23.119   0.0% |
  Poisson:                                 393.281   165.170   0.2% |
   Communicate from 1D:                     44.681    44.681   0.1% |
   Communicate from 2D:                     45.923    45.923   0.1% |
   Communicate to 1D:                       25.471    25.471   0.0% |
   Communicate to 2D:                       46.555    46.555   0.1% |
   FFT 1D:                                  31.502    31.502   0.0% |
   FFT 2D:                                  33.980    33.980   0.0% |
  XC 3D grid:                            14769.136  1010.983   1.2% |
   VdW-DF integral:                      13758.152    41.216   0.1% |
    Convolution:                          1029.650  1029.650   1.3% ||
    FFT:                                   211.372   211.372   0.3% |
    gather:                              10052.359 10052.359  12.3% |----|
    hmm1:                                  230.111   230.111   0.3% |
    hmm2:                                  313.716   313.716   0.4% |
    iFFT:                                  213.133   213.133   0.3% |
    potential:                            1666.593    11.084   0.0% |
     collect:                              219.986   219.986   0.3% |
     p1:                                   654.166   654.166   0.8% |
     p2:                                   449.605   449.605   0.5% |
     sum:                                  331.752   331.752   0.4% |
    splines:                                 0.001     0.001   0.0% |
  vbar:                                      3.470     3.470   0.0% |
 Orthonormalize:                           221.771     0.002   0.0% |
  calc_s_matrix:                            35.377    35.377   0.0% |
  inverse-cholesky:                          6.626     6.626   0.0% |
  projections:                              36.162    36.162   0.0% |
  rotate_psi_s:                            143.605   143.605   0.2% |
Set symmetry:                                0.006     0.006   0.0% |
Other:                                     168.435   168.435   0.2% |
-------------------------------------------------------------------
Total:                                             81866.720 100.0%

Memory usage: 3.69 GiB
Date: Mon Jan 23 11:27:02 2023
