
  ___ ___ ___ _ _ _  
 |   |   |_  | | | | 
 | | | | | . | | | | 
 |__ |  _|___|_____|  22.8.0
 |___|_|             

User:   vazumah@c21.hercules
Date:   Tue Jan 17 23:04:32 2023
Arch:   x86_64
Pid:    4555
CWD:    /home/vazumah/Python_projects/LiNRR/autocad_start/slab_experiments/free_slabs/Na/bcc100/substrate
Python: 3.10.8
gpaw:   /home/vazumah/.conda/envs/GPAW/lib/python3.10/site-packages/gpaw
_gpaw:  /home/vazumah/.conda/envs/GPAW/lib/python3.10/site-packages/
        _gpaw.cpython-310-x86_64-linux-gnu.so
ase:    /home/vazumah/.conda/envs/GPAW/lib/python3.10/site-packages/ase (version 3.22.1)
numpy:  /home/vazumah/.conda/envs/GPAW/lib/python3.10/site-packages/numpy (version 1.24.1)
scipy:  /home/vazumah/.conda/envs/GPAW/lib/python3.10/site-packages/scipy (version 1.10.0)
libxc:  5.2.3
units:  Angstrom and eV
cores: 24
OpenMP: True
OMP_NUM_THREADS: 1

Input parameters:
  eigensolver: {name: dav,
                niter: 3}
  h: 0.16
  kpts: {size: [4, 4, 1]}
  maxiter: 999
  mixer: {backend: pulay,
          beta: 0.02,
          method: separate,
          nmaxold: 5,
          weight: 100}
  occupations: {name: fermi-dirac,
                width: 0.05}
  poissonsolver: {dipolelayer: xy}
  xc: BEEF-vdW

System changes: positions, numbers, cell, pbc, initial_charges, initial_magmoms 

Initialize ...

species:
  Na:
    name: Sodium
    id: d7ecbc49209718622bcbe287195dca2a
    Z: 11.0
    valence: 7
    core: 4
    charge: 0.0
    file: /home/vazumah/.conda/envs/GPAW/share/gpaw/Na.PBE.gz
    compensation charges: {type: gauss,
                           rc: 0.37,
                           lmax: 2}
    cutoffs: {filter: 2.17,
              core: 2.59}
    valence states:
      #              energy  rcut
      - 3s(1.00)    -2.744   1.201
      - 2p(6.00)   -28.672   1.217
      - 3p(0.00)    -0.743   1.217
      -  s          24.468   1.201
      -  d           0.000   1.238
  
    # Using partial waves for Na as LCAO basis

Reference energy: -159069.977916  # eV

Spin-paired calculation

Convergence criteria:
 Maximum [total energy] change in last 3 cyles: 0.0005 eV / electron
 Maximum integral of absolute [dens]ity change: 0.0001 electrons / valence electron
 Maximum integral of absolute [eigenst]ate change: 4e-08 eV^2 / valence electron
 Maximum number of scf [iter]ations: 999
 (Square brackets indicate name in SCF output, whereas a 'c' in
 the SCF output indicates the quantity has converged.)

Symmetries present (total): 8

  ( 1  0  0)  ( 1  0  0)  ( 0  1  0)  ( 0  1  0)  ( 0 -1  0)  ( 0 -1  0)
  ( 0  1  0)  ( 0 -1  0)  ( 1  0  0)  (-1  0  0)  ( 1  0  0)  (-1  0  0)
  ( 0  0  1)  ( 0  0  1)  ( 0  0  1)  ( 0  0  1)  ( 0  0  1)  ( 0  0  1)

  (-1  0  0)  (-1  0  0)
  ( 0  1  0)  ( 0 -1  0)
  ( 0  0  1)  ( 0  0  1)

16 k-points: 4 x 4 x 1 Monkhorst-Pack grid
3 k-points in the irreducible part of the Brillouin zone
       k-points in crystal coordinates                weights
   0:     0.12500000    0.12500000    0.00000000          4/16
   1:     0.37500000    0.12500000    0.00000000          8/16
   2:     0.37500000    0.37500000    0.00000000          4/16

Wave functions: Uniform real-space grid
  Kinetic energy operator: 6*3+1=19 point O(h^6) finite-difference Laplacian
  ScaLapack parameters: grid=1x1, blocksize=None
  Wavefunction extrapolation:
    Improved wavefunction reuse through dual PAW basis 

Occupation numbers: Fermi-Dirac:
  width: 0.0500  # eV
 

Eigensolver
   Davidson(niter=3) 

Densities:
  Coarse grid: 80*80*164 grid
  Fine grid: 160*160*328 grid
  Total Charge: 0.000000 

Density mixing:
  Method: separate
  Backend: pulay
  Linear mixing parameter: 0.02
  old densities: 5
  Damping of long wavelength oscillations: 100 

Hamiltonian:
  XC and Coulomb potentials evaluated on a 160*160*328 grid
  Using the BEEF-vdW Exchange-Correlation functional
  Interpolation: tri-quintic (5. degree polynomial)
  Poisson solver: FastPoissonSolver using
    Stencil: 6*3+1=19 point O(h^6) finite-difference Laplacian
    FFT axes: [0, 1]
    FST axes: [2]

Dipole correction along z-axis 

XC parameters: BEEF-vdW with 2 nearest neighbor stencil

Memory estimate:
  Process memory now: 181.15 MiB
  Calculator: 722.40 MiB
    Density: 74.98 MiB
      Arrays: 25.68 MiB
      Localized functions: 39.53 MiB
      Mixer: 9.77 MiB
    Hamiltonian: 19.70 MiB
      Arrays: 16.80 MiB
      XC: 0.00 MiB
      Poisson: 0.00 MiB
      vbar: 2.91 MiB
    Wavefunctions: 627.72 MiB
      Arrays psit_nG: 304.69 MiB
      Eigensolver: 318.17 MiB
      Projections: 0.14 MiB
      Projectors: 4.72 MiB

Total number of cores used: 24
Parallelization over k-points: 3
Domain decomposition: 1 x 2 x 4

Number of atoms: 36
Number of atomic orbitals: 252
Number of bands in calculation: 156
Number of valence electrons: 252
Bands to converge: occupied

... initialized

Initializing position-dependent things.

Density initialized from atomic densities
Creating initial wave functions:
  156 bands from LCAO basis set

         .------------------------------.  
        /|                              |  
       / |                              |  
      /  |                              |  
     /   |                              |  
    /    |                              |  
   /     |                              |  
  /      |                              |  
 *       |                              |  
 |       |                              |  
 |       |                              |  
 |       |                              |  
 |       |                              |  
 |       |                              |  
 |       |                              |  
 |    Na |       Na        Na           |  
 |       |   Na        Na        Na     |  
 |  Na   |    Na        Na              |  
 |       |                              |  
 |       |Na         Na        Na       |  
 Na   Na | Na    Na   Na   Na           |  
 |     Na|   Na   Na   Na   Na   Na     |  
 |       |                              |  
 |  Na   |    Na        Na              |  
 |       |Na         Na        Na       |  
 Na      | Na         Na                |  
 |       |                              |  
 |     Na|        Na        Na          |  
 |       |                              |  
 |       |                              |  
 |       |                              |  
 |       |                              |  
 |       .------------------------------.  
 |      /                              /   
 |     /                              /    
 |    /                              /     
 |   /                              /      
 |  /                              /       
 | /                              /        
 |/                              /         
 *------------------------------*          

Positions:
   0 Na     2.115000    2.115000   10.000000    ( 0.0000,  0.0000,  0.0000)
   1 Na     6.345000    2.115000   10.000000    ( 0.0000,  0.0000,  0.0000)
   2 Na    10.575000    2.115000   10.000000    ( 0.0000,  0.0000,  0.0000)
   3 Na     2.115000    6.345000   10.000000    ( 0.0000,  0.0000,  0.0000)
   4 Na     6.345000    6.345000   10.000000    ( 0.0000,  0.0000,  0.0000)
   5 Na    10.575000    6.345000   10.000000    ( 0.0000,  0.0000,  0.0000)
   6 Na     2.115000   10.575000   10.000000    ( 0.0000,  0.0000,  0.0000)
   7 Na     6.345000   10.575000   10.000000    ( 0.0000,  0.0000,  0.0000)
   8 Na    10.575000   10.575000   10.000000    ( 0.0000,  0.0000,  0.0000)
   9 Na     0.000000    0.000000   12.115000    ( 0.0000,  0.0000,  0.0000)
  10 Na     4.230000    0.000000   12.115000    ( 0.0000,  0.0000,  0.0000)
  11 Na     8.460000    0.000000   12.115000    ( 0.0000,  0.0000,  0.0000)
  12 Na     0.000000    4.230000   12.115000    ( 0.0000,  0.0000,  0.0000)
  13 Na     4.230000    4.230000   12.115000    ( 0.0000,  0.0000,  0.0000)
  14 Na     8.460000    4.230000   12.115000    ( 0.0000,  0.0000,  0.0000)
  15 Na     0.000000    8.460000   12.115000    ( 0.0000,  0.0000,  0.0000)
  16 Na     4.230000    8.460000   12.115000    ( 0.0000,  0.0000,  0.0000)
  17 Na     8.460000    8.460000   12.115000    ( 0.0000,  0.0000,  0.0000)
  18 Na     2.115000    2.115000   14.230000    ( 0.0000,  0.0000,  0.0000)
  19 Na     6.345000    2.115000   14.230000    ( 0.0000,  0.0000,  0.0000)
  20 Na    10.575000    2.115000   14.230000    ( 0.0000,  0.0000,  0.0000)
  21 Na     2.115000    6.345000   14.230000    ( 0.0000,  0.0000,  0.0000)
  22 Na     6.345000    6.345000   14.230000    ( 0.0000,  0.0000,  0.0000)
  23 Na    10.575000    6.345000   14.230000    ( 0.0000,  0.0000,  0.0000)
  24 Na     2.115000   10.575000   14.230000    ( 0.0000,  0.0000,  0.0000)
  25 Na     6.345000   10.575000   14.230000    ( 0.0000,  0.0000,  0.0000)
  26 Na    10.575000   10.575000   14.230000    ( 0.0000,  0.0000,  0.0000)
  27 Na     0.000000    0.000000   16.345000    ( 0.0000,  0.0000,  0.0000)
  28 Na     4.230000    0.000000   16.345000    ( 0.0000,  0.0000,  0.0000)
  29 Na     8.460000    0.000000   16.345000    ( 0.0000,  0.0000,  0.0000)
  30 Na     0.000000    4.230000   16.345000    ( 0.0000,  0.0000,  0.0000)
  31 Na     4.230000    4.230000   16.345000    ( 0.0000,  0.0000,  0.0000)
  32 Na     8.460000    4.230000   16.345000    ( 0.0000,  0.0000,  0.0000)
  33 Na     0.000000    8.460000   16.345000    ( 0.0000,  0.0000,  0.0000)
  34 Na     4.230000    8.460000   16.345000    ( 0.0000,  0.0000,  0.0000)
  35 Na     8.460000    8.460000   16.345000    ( 0.0000,  0.0000,  0.0000)

Unit cell:
           periodic     x           y           z      points  spacing
  1. axis:    yes   12.690000    0.000000    0.000000    80     0.1586
  2. axis:    yes    0.000000   12.690000    0.000000    80     0.1586
  3. axis:    no     0.000000    0.000000   26.345000   164     0.1606

  Lengths:  12.690000  12.690000  26.345000
  Angles:   90.000000  90.000000  90.000000

Effective grid spacing dv^(1/3) = 0.1593

     iter     time        total  log10-change:
                         energy  eigst   dens
iter:   1 23:14:43  -763.174910
iter:   2 23:23:21  -763.277808  -0.87  -1.47
iter:   3 23:32:12  -762.872735  -1.06  -1.50
iter:   4 23:41:05  -763.031810  -1.01  -1.69
Writing to output.gpw (mode='')

iter:   5 23:49:51  -762.985044  -1.49  -1.71
iter:   6 23:58:41  -763.268130  -1.58  -1.72
iter:   7 00:07:31  -763.252983  -1.43  -2.19
iter:   8 00:16:23  -763.273224c -2.23  -2.22
iter:   9 00:25:19  -763.246888c -2.22  -2.19
Writing to output.gpw (mode='')

iter:  10 00:34:06  -763.243612c -2.55  -2.25
iter:  11 00:42:43  -763.229442c -2.82  -2.25
iter:  12 00:51:23  -763.210401c -3.02  -2.33
iter:  13 01:00:14  -763.226062c -3.10  -2.43
iter:  14 01:08:55  -763.202108c -3.05  -2.29
Writing to output.gpw (mode='')

iter:  15 01:17:54  -763.174772c -2.78  -2.45
iter:  16 01:26:54  -763.174536c -2.74  -2.93
iter:  17 01:35:44  -763.176004c -3.01  -3.08
iter:  18 01:44:23  -763.177339c -3.52  -3.11
iter:  19 01:53:04  -763.177005c -3.62  -3.11
Writing to output.gpw (mode='')

iter:  20 02:02:02  -763.177248c -3.80  -3.11
iter:  21 02:10:37  -763.177796c -4.51  -3.17
iter:  22 02:19:24  -763.177418c -4.79  -3.18
iter:  23 02:28:09  -763.179565c -3.55  -3.20
iter:  24 02:36:49  -763.178682c -4.03  -3.15
Writing to output.gpw (mode='')

iter:  25 02:45:38  -763.178800c -4.38  -3.71
iter:  26 02:54:22  -763.178822c -4.91  -3.71
iter:  27 03:03:06  -763.178692c -4.88  -3.71
iter:  28 03:08:29  -763.178712c -5.14  -3.75
iter:  29 03:14:20  -763.178666c -5.59  -3.75
Writing to output.gpw (mode='')

iter:  30 03:23:06  -763.178678c -6.50  -3.76
iter:  31 03:31:56  -763.179051c -4.62  -3.76
iter:  32 03:40:33  -763.178707c -4.59  -3.53
iter:  33 03:49:15  -763.178658c -5.36  -3.74
iter:  34 03:57:49  -763.178644c -4.80  -3.76
Writing to output.gpw (mode='')

iter:  35 04:06:37  -763.178657c -4.80  -3.78
iter:  36 04:15:27  -763.178657c -5.40  -3.90
iter:  37 04:24:25  -763.178699c -5.31  -3.95
iter:  38 04:33:08  -763.178718c -5.80  -4.15c
iter:  39 04:41:36  -763.178721c -6.15  -4.22c
Writing to output.gpw (mode='')

iter:  40 04:50:25  -763.178734c -4.73  -4.26c
iter:  41 04:59:17  -763.178741c -5.62  -4.37c
iter:  42 05:08:08  -763.178736c -5.28  -4.48c
iter:  43 05:17:04  -763.178731c -6.20  -4.74c
iter:  44 05:25:54  -763.178742c -6.60  -4.74c
Writing to output.gpw (mode='')

iter:  45 05:34:42  -763.178729c -6.28  -4.67c
iter:  46 05:43:42  -763.178734c -6.62  -4.73c
iter:  47 05:52:26  -763.178738c -6.29  -4.71c
iter:  48 06:01:03  -763.178739c -5.80  -4.75c
iter:  49 06:09:57  -763.178735c -7.07  -4.78c
Writing to output.gpw (mode='')

iter:  50 06:18:52  -763.178734c -7.50c -4.81c

Converged after 50 iterations.

Dipole moment: (-5.241080, -5.241080, 0.000000) |e|*Ang

Energy contributions relative to reference atoms: (reference = -159069.977916)

Kinetic:       +186.260773
Potential:     -164.860497
External:        +0.000000
XC:            -783.241090
Entropy (-ST):   -0.195158
Local:           -1.240341
--------------------------
Free energy:   -763.276314
Extrapolated:  -763.178734

Dipole-layer corrected work functions: 2.931613, 2.931613 eV

Showing only first 2 kpts
 Kpt  Band  Eigenvalues  Occupancy
  0   124     -2.94019    1.08556
  0   125     -2.94019    1.08554
  0   126     -2.73951    0.04200
  0   127     -2.73951    0.04200

  1   124     -3.08515    1.91133
  1   125     -3.03076    1.75800
  1   126     -2.86622    0.42567
  1   127     -2.65262    0.00752


Fermi level: -2.93161

No gap

Forces in eV/Ang:
  0 Na   -0.00107   -0.00107   -0.01127
  1 Na    0.00000   -0.00201   -0.01527
  2 Na    0.00107   -0.00107   -0.01127
  3 Na   -0.00201    0.00000   -0.01527
  4 Na   -0.00000    0.00000   -0.00914
  5 Na    0.00201    0.00000   -0.01527
  6 Na   -0.00107    0.00107   -0.01127
  7 Na    0.00000    0.00201   -0.01527
  8 Na    0.00107    0.00107   -0.01127
  9 Na    0.00000    0.00000    0.01657
 10 Na    0.00389    0.00000    0.01237
 11 Na   -0.00389    0.00000    0.01237
 12 Na    0.00000    0.00389    0.01237
 13 Na   -0.00141   -0.00141    0.01464
 14 Na    0.00141   -0.00141    0.01464
 15 Na    0.00000   -0.00389    0.01237
 16 Na   -0.00141    0.00141    0.01464
 17 Na    0.00141    0.00141    0.01464
 18 Na    0.00141    0.00141   -0.01464
 19 Na    0.00000   -0.00389   -0.01237
 20 Na   -0.00141    0.00141   -0.01464
 21 Na   -0.00389    0.00000   -0.01237
 22 Na    0.00000    0.00000   -0.01657
 23 Na    0.00389    0.00000   -0.01237
 24 Na    0.00141   -0.00141   -0.01464
 25 Na    0.00000    0.00389   -0.01237
 26 Na   -0.00141   -0.00141   -0.01464
 27 Na    0.00000    0.00000    0.00914
 28 Na    0.00201    0.00000    0.01527
 29 Na   -0.00201    0.00000    0.01527
 30 Na    0.00000    0.00201    0.01527
 31 Na    0.00107    0.00107    0.01127
 32 Na   -0.00107    0.00107    0.01127
 33 Na    0.00000   -0.00201    0.01527
 34 Na    0.00107   -0.00107    0.01127
 35 Na   -0.00107   -0.00107    0.01127

Timing:                              incl.     excl.
-----------------------------------------------------------
Forces:                             18.247    18.247   0.1% |
Hamiltonian:                       166.240     0.000   0.0% |
 Atomic:                             0.189     0.001   0.0% |
  XC Correction:                     0.188     0.188   0.0% |
 Calculate atomic Hamiltonians:      0.299     0.299   0.0% |
 Communicate:                        0.481     0.481   0.0% |
 Hartree integrate/restrict:         0.135     0.135   0.0% |
 Initialize Hamiltonian:             0.000     0.000   0.0% |
 Poisson:                            2.306     0.184   0.0% |
  Communicate from 1D:               0.319     0.319   0.0% |
  Communicate from 2D:               0.532     0.532   0.0% |
  Communicate to 1D:                 0.268     0.268   0.0% |
  Communicate to 2D:                 0.426     0.426   0.0% |
  FFT 1D:                            0.286     0.286   0.0% |
  FFT 2D:                            0.291     0.291   0.0% |
 XC 3D grid:                       162.815     8.544   0.0% |
  VdW-DF integral:                 154.271     0.498   0.0% |
   Convolution:                     10.415    10.415   0.0% |
   FFT:                              1.890     1.890   0.0% |
   gather:                         102.771   102.771   0.4% |
   hmm1:                             1.974     1.974   0.0% |
   hmm2:                             2.635     2.635   0.0% |
   iFFT:                             2.451     2.451   0.0% |
   potential:                       13.153     0.102   0.0% |
    collect:                         1.530     1.530   0.0% |
    p1:                              5.264     5.264   0.0% |
    p2:                              3.669     3.669   0.0% |
    sum:                             2.587     2.587   0.0% |
   splines:                         18.484    18.484   0.1% |
 vbar:                               0.014     0.014   0.0% |
LCAO initialization:                24.467     0.130   0.0% |
 LCAO eigensolver:                   2.142     0.001   0.0% |
  Calculate projections:             0.000     0.000   0.0% |
  DenseAtomicCorrection:             0.000     0.000   0.0% |
  Distribute overlap matrix:         1.792     1.792   0.0% |
  Orbital Layouts:                   0.340     0.340   0.0% |
  Potential matrix:                  0.004     0.004   0.0% |
  Sum over cells:                    0.006     0.006   0.0% |
 LCAO to grid:                      21.524    21.524   0.1% |
 Set positions (LCAO WFS):           0.670     0.493   0.0% |
  Basic WFS set positions:           0.021     0.021   0.0% |
  Basis functions set positions:     0.001     0.001   0.0% |
  P tci:                             0.000     0.000   0.0% |
  ST tci:                            0.051     0.051   0.0% |
  mktci:                             0.103     0.103   0.0% |
SCF-cycle:                       25855.111   157.194   0.6% |
 Davidson:                       18417.697  5107.669  19.6% |-------|
  Apply hamiltonian:               923.186   923.186   3.5% ||
  Subspace diag:                  2195.193     0.021   0.0% |
   calc_h_matrix:                  847.808   435.294   1.7% ||
    Apply hamiltonian:             412.514   412.514   1.6% ||
   diagonalize:                     59.116    59.116   0.2% |
   rotate_psi:                    1288.247  1288.247   4.9% |-|
  calc. matrices:                 6586.973  4552.558  17.5% |------|
   Apply hamiltonian:             2034.415  2034.415   7.8% |--|
  diagonalize:                      52.161    52.161   0.2% |
  rotate_psi:                     3552.515  3552.515  13.6% |----|
 Density:                          146.610     0.002   0.0% |
  Atomic density matrices:          14.367    14.367   0.1% |
  Mix:                              13.543    13.543   0.1% |
  Multipole moments:                 0.148     0.148   0.0% |
  Pseudo density:                  118.551    42.561   0.2% |
   Symmetrize density:              75.990    75.990   0.3% |
 Hamiltonian:                     7107.666     0.010   0.0% |
  Atomic:                           13.619     2.579   0.0% |
   XC Correction:                   11.040    11.040   0.0% |
  Calculate atomic Hamiltonians:    13.814    13.814   0.1% |
  Communicate:                      20.603    20.603   0.1% |
  Hartree integrate/restrict:        9.405     9.405   0.0% |
  Poisson:                         154.010    56.557   0.2% |
   Communicate from 1D:             17.969    17.969   0.1% |
   Communicate from 2D:             19.711    19.711   0.1% |
   Communicate to 1D:               10.157    10.157   0.0% |
   Communicate to 2D:               19.553    19.553   0.1% |
   FFT 1D:                          16.995    16.995   0.1% |
   FFT 2D:                          13.069    13.069   0.1% |
  XC 3D grid:                     6894.659   397.446   1.5% ||
   VdW-DF integral:               6497.213    18.684   0.1% |
    Convolution:                   494.300   494.300   1.9% ||
    FFT:                           111.880   111.880   0.4% |
    gather:                       4891.359  4891.359  18.8% |-------|
    hmm1:                           90.760    90.760   0.3% |
    hmm2:                          124.598   124.598   0.5% |
    iFFT:                          109.714   109.714   0.4% |
    potential:                     655.918     4.411   0.0% |
     collect:                       88.376    88.376   0.3% |
     p1:                           253.210   253.210   1.0% |
     p2:                           171.428   171.428   0.7% |
     sum:                          138.492   138.492   0.5% |
    splines:                         0.001     0.001   0.0% |
  vbar:                              1.547     1.547   0.0% |
 Orthonormalize:                    25.944     0.000   0.0% |
  calc_s_matrix:                     3.558     3.558   0.0% |
  inverse-cholesky:                  8.614     8.614   0.0% |
  projections:                       0.000     0.000   0.0% |
  rotate_psi_s:                     13.771    13.771   0.1% |
Set symmetry:                        0.021     0.021   0.0% |
Other:                              13.932    13.932   0.1% |
-----------------------------------------------------------
Total:                                     26078.018 100.0%

Memory usage: 2.65 GiB
Date: Wed Jan 18 06:19:10 2023
