
  ___ ___ ___ _ _ _  
 |   |   |_  | | | | 
 | | | | | . | | | | 
 |__ |  _|___|_____|  22.8.0
 |___|_|             

User:   vazumah@c24.hercules
Date:   Mon Feb 13 09:14:54 2023
Arch:   x86_64
Pid:    17119
CWD:    /home/vazumah/Python_projects/LiNRR/autocad_start/slab_experiments/fixed_slab_def_vacuum/Ca/fcc110/substrate
Python: 3.10.8
gpaw:   /home/vazumah/.conda/envs/GPAW/lib/python3.10/site-packages/gpaw
_gpaw:  /home/vazumah/.conda/envs/GPAW/lib/python3.10/site-packages/
        _gpaw.cpython-310-x86_64-linux-gnu.so
ase:    /home/vazumah/.conda/envs/GPAW/lib/python3.10/site-packages/ase (version 3.22.1)
numpy:  /home/vazumah/.conda/envs/GPAW/lib/python3.10/site-packages/numpy (version 1.24.1)
scipy:  /home/vazumah/.conda/envs/GPAW/lib/python3.10/site-packages/scipy (version 1.10.0)
libxc:  5.2.3
units:  Angstrom and eV
cores: 24
OpenMP: True
OMP_NUM_THREADS: 1

Input parameters:
  eigensolver: {name: dav,
                niter: 3}
  h: 0.16
  kpts: {size: [1, 1, 1]}
  maxiter: 999
  mixer: {backend: pulay,
          beta: 0.01,
          method: difference,
          nmaxold: 5,
          weight: 100}
  occupations: {name: fermi-dirac,
                width: 0.05}
  poissonsolver: {dipolelayer: xy}
  xc: BEEF-vdW

System changes: positions, numbers, cell, pbc, initial_charges, initial_magmoms 

Initialize ...

species:
  Ca:
    name: Calcium
    id: 0641b8f64fa1d43c6d3de45527ace046
    Z: 20.0
    valence: 10
    core: 10
    charge: 0.0
    file: /home/vazumah/.conda/envs/GPAW/share/gpaw/Ca.PBE.gz
    compensation charges: {type: gauss,
                           rc: 0.37,
                           lmax: 2}
    cutoffs: {filter: 2.10,
              core: 1.17}
    valence states:
      #              energy  rcut
      - 3s(2.00)   -47.086   1.175
      - 4s(2.00)    -3.766   1.175
      - 3p(6.00)   -28.008   1.154
      -  p          -0.797   1.154
      -  d           0.000   0.937
  
    # Using partial waves for Ca as LCAO basis

Reference energy: -666391.292358  # eV

Spin-paired calculation

Convergence criteria:
 Maximum [total energy] change in last 3 cyles: 0.0005 eV / electron
 Maximum integral of absolute [dens]ity change: 0.0001 electrons / valence electron
 Maximum integral of absolute [eigenst]ate change: 4e-08 eV^2 / valence electron
 Maximum number of scf [iter]ations: 999
 (Square brackets indicate name in SCF output, whereas a 'c' in
 the SCF output indicates the quantity has converged.)

Symmetries present (total): 4

  ( 1  0  0)  ( 1  0  0)  (-1  0  0)  (-1  0  0)
  ( 0  1  0)  ( 0 -1  0)  ( 0  1  0)  ( 0 -1  0)
  ( 0  0  1)  ( 0  0  1)  ( 0  0  1)  ( 0  0  1)

1 k-point (Gamma)
1 k-point in the irreducible part of the Brillouin zone
       k-points in crystal coordinates                weights
   0:     0.00000000    0.00000000    0.00000000          1/1

Wave functions: Uniform real-space grid
  Kinetic energy operator: 6*3+1=19 point O(h^6) finite-difference Laplacian
  ScaLapack parameters: grid=1x1, blocksize=None
  Wavefunction extrapolation:
    Improved wavefunction reuse through dual PAW basis 

Occupation numbers: Fermi-Dirac:
  width: 0.0500  # eV
 

Eigensolver
   Davidson(niter=3) 

Densities:
  Coarse grid: 104*72*160 grid
  Fine grid: 208*144*320 grid
  Total Charge: 0.000000 

Density mixing:
  Method: separate
  Backend: pulay
  Linear mixing parameter: 0.01
  old densities: 5
  Damping of long wavelength oscillations: 100 

Hamiltonian:
  XC and Coulomb potentials evaluated on a 208*144*320 grid
  Using the BEEF-vdW Exchange-Correlation functional
  Interpolation: tri-quintic (5. degree polynomial)
  Poisson solver: FastPoissonSolver using
    Stencil: 6*3+1=19 point O(h^6) finite-difference Laplacian
    FFT axes: [0, 1]
    FST axes: [2]

Dipole correction along z-axis 

XC parameters: BEEF-vdW with 2 nearest neighbor stencil

Memory estimate:
  Process memory now: 115.95 MiB
  Calculator: 172.04 MiB
    Density: 24.07 MiB
      Arrays: 9.86 MiB
      Localized functions: 10.46 MiB
      Mixer: 3.75 MiB
    Hamiltonian: 7.28 MiB
      Arrays: 6.45 MiB
      XC: 0.00 MiB
      Poisson: 0.00 MiB
      vbar: 0.83 MiB
    Wavefunctions: 140.69 MiB
      Arrays psit_nG: 67.48 MiB
      Eigensolver: 71.84 MiB
      Projections: 0.03 MiB
      Projectors: 1.34 MiB

Total number of cores used: 24
Domain decomposition: 3 x 2 x 4

Number of atoms: 36
Number of atomic orbitals: 180
Number of bands in calculation: 180
Number of valence electrons: 360
Bands to converge: occupied

... initialized

Initializing position-dependent things.

Density initialized from atomic densities
Creating initial wave functions:
  180 bands from LCAO basis set

        .----------------------------------------.  
       /|                                        |  
      / |                                        |  
     /  |                                        |  
    /   |                                        |  
   /    |                                        |  
  /     |                                        |  
 *      |                                        |  
 |      |                                        |  
 |      |                                        |  
 |      |                                        |  
 |      |                                        |  
 |      |                                        |  
 |      |                                        |  
 |      |                                        |  
 |    Ca|          Ca            Ca              |  
 |      |     Ca           Ca            Ca      |  
 | Ca   |        Ca            Ca                |  
 |      |  Ca            Ca            Ca        |  
 Ca     |      Ca           Ca                   |  
 |    Ca|          Ca            Ca              |  
 |      |Ca   Ca       Ca  Ca       Ca   Ca      |  
 | Ca   |        Ca            Ca                |  
 |      |  Ca            Ca            Ca        |  
 Ca     |      Ca           Ca                   |  
 |      |Ca            Ca           Ca           |  
 |      |                                        |  
 |      |                                        |  
 |      |                                        |  
 |      |                                        |  
 |      |                                        |  
 |      |                                        |  
 |      .----------------------------------------.  
 |     /                                        /   
 |    /                                        /    
 |   /                                        /     
 |  /                                        /      
 | /                                        /       
 |/                                        /        
 *----------------------------------------*         

Positions:
   0 Ca     2.790000    1.972828   10.000000    ( 0.0000,  0.0000,  0.0000)
   1 Ca     8.370000    1.972828   10.000000    ( 0.0000,  0.0000,  0.0000)
   2 Ca    13.950000    1.972828   10.000000    ( 0.0000,  0.0000,  0.0000)
   3 Ca     2.790000    5.918484   10.000000    ( 0.0000,  0.0000,  0.0000)
   4 Ca     8.370000    5.918484   10.000000    ( 0.0000,  0.0000,  0.0000)
   5 Ca    13.950000    5.918484   10.000000    ( 0.0000,  0.0000,  0.0000)
   6 Ca     2.790000    9.864140   10.000000    ( 0.0000,  0.0000,  0.0000)
   7 Ca     8.370000    9.864140   10.000000    ( 0.0000,  0.0000,  0.0000)
   8 Ca    13.950000    9.864140   10.000000    ( 0.0000,  0.0000,  0.0000)
   9 Ca     0.000000    0.000000   11.972828    ( 0.0000,  0.0000,  0.0000)
  10 Ca     5.580000    0.000000   11.972828    ( 0.0000,  0.0000,  0.0000)
  11 Ca    11.160000    0.000000   11.972828    ( 0.0000,  0.0000,  0.0000)
  12 Ca     0.000000    3.945656   11.972828    ( 0.0000,  0.0000,  0.0000)
  13 Ca     5.580000    3.945656   11.972828    ( 0.0000,  0.0000,  0.0000)
  14 Ca    11.160000    3.945656   11.972828    ( 0.0000,  0.0000,  0.0000)
  15 Ca     0.000000    7.891312   11.972828    ( 0.0000,  0.0000,  0.0000)
  16 Ca     5.580000    7.891312   11.972828    ( 0.0000,  0.0000,  0.0000)
  17 Ca    11.160000    7.891312   11.972828    ( 0.0000,  0.0000,  0.0000)
  18 Ca     2.790000    1.972828   13.945656    ( 0.0000,  0.0000,  0.0000)
  19 Ca     8.370000    1.972828   13.945656    ( 0.0000,  0.0000,  0.0000)
  20 Ca    13.950000    1.972828   13.945656    ( 0.0000,  0.0000,  0.0000)
  21 Ca     2.790000    5.918484   13.945656    ( 0.0000,  0.0000,  0.0000)
  22 Ca     8.370000    5.918484   13.945656    ( 0.0000,  0.0000,  0.0000)
  23 Ca    13.950000    5.918484   13.945656    ( 0.0000,  0.0000,  0.0000)
  24 Ca     2.790000    9.864140   13.945656    ( 0.0000,  0.0000,  0.0000)
  25 Ca     8.370000    9.864140   13.945656    ( 0.0000,  0.0000,  0.0000)
  26 Ca    13.950000    9.864140   13.945656    ( 0.0000,  0.0000,  0.0000)
  27 Ca     0.000000    0.000000   15.918484    ( 0.0000,  0.0000,  0.0000)
  28 Ca     5.580000    0.000000   15.918484    ( 0.0000,  0.0000,  0.0000)
  29 Ca    11.160000    0.000000   15.918484    ( 0.0000,  0.0000,  0.0000)
  30 Ca     0.000000    3.945656   15.918484    ( 0.0000,  0.0000,  0.0000)
  31 Ca     5.580000    3.945656   15.918484    ( 0.0000,  0.0000,  0.0000)
  32 Ca    11.160000    3.945656   15.918484    ( 0.0000,  0.0000,  0.0000)
  33 Ca     0.000000    7.891312   15.918484    ( 0.0000,  0.0000,  0.0000)
  34 Ca     5.580000    7.891312   15.918484    ( 0.0000,  0.0000,  0.0000)
  35 Ca    11.160000    7.891312   15.918484    ( 0.0000,  0.0000,  0.0000)

Unit cell:
           periodic     x           y           z      points  spacing
  1. axis:    yes   16.740000    0.000000    0.000000   104     0.1610
  2. axis:    yes    0.000000   11.836968    0.000000    72     0.1644
  3. axis:    no     0.000000    0.000000   25.918484   160     0.1620

  Lengths:  16.740000  11.836968  25.918484
  Angles:   90.000000  90.000000  90.000000

Effective grid spacing dv^(1/3) = 0.1624

     iter     time        total  log10-change:
                         energy  eigst   dens
iter:   1 09:21:30 -1552.985991
iter:   2 09:27:43 -1562.372365  +0.76  -1.65
iter:   3 09:34:09 -1568.203092  +0.43  -1.62
iter:   4 09:40:16 -1572.412740  +0.43  -1.57
Writing to output.gpw (mode='')

iter:   5 09:46:32 -1579.700001  +0.16  -1.51
iter:   6 09:52:55 -1583.621269  +0.46  -1.55
iter:   7 09:58:55 -1586.919506  -0.09  -1.48
iter:   8 10:05:02 -1588.715019  +0.18  -1.40
iter:   9 10:11:16 -1591.955463  -0.27  -1.36
Writing to output.gpw (mode='')

iter:  10 10:17:43 -1588.437318  -0.25  -1.30
iter:  11 10:24:06 -1584.617422  -0.73  -1.31
iter:  12 10:30:18 -1585.207880  -0.78  -1.34
iter:  13 10:36:30 -1585.424097  -1.01  -1.34
iter:  14 10:42:40 -1590.180246  -0.91  -1.34
Writing to output.gpw (mode='')

iter:  15 10:49:06 -1577.036242  -0.25  -1.30
iter:  16 10:55:31 -1579.391992  +0.29  -1.49
iter:  17 11:01:47 -1588.030779  -0.09  -1.51
iter:  18 11:07:58 -1589.910844  +0.08  -1.52
iter:  19 11:14:18 -1589.761552  -0.36  -1.44
Writing to output.gpw (mode='')

iter:  20 11:20:24 -1622.618629  -0.03  -1.41
iter:  21 11:26:38 -1576.534991  +0.36  -1.06
iter:  22 11:32:48 -1588.464705  -0.42  -1.27
iter:  23 11:39:02 -1580.266882  -0.49  -1.24
iter:  24 11:45:09 -1584.300648  -0.67  -1.51
Writing to output.gpw (mode='')

iter:  25 11:51:35 -1580.326079  -0.49  -1.46
iter:  26 11:57:57 -1580.992146  -0.53  -1.60
iter:  27 12:04:19 -1590.235132  -0.44  -1.62
iter:  28 12:10:37 -1590.590192  -0.24  -1.40
iter:  29 12:16:56 -1588.358504  -0.90  -1.36
Writing to output.gpw (mode='')

iter:  30 12:23:12 -1588.598162  -1.00  -1.34
iter:  31 12:29:30 -1579.173121  -0.32  -1.32
iter:  32 12:35:31 -1580.788756  +0.10  -1.99
iter:  33 12:41:57 -1581.185119  -0.24  -2.03
iter:  34 12:48:12 -1582.854832  -0.59  -2.02
Writing to output.gpw (mode='')

iter:  35 12:54:36 -1583.351708  -0.24  -1.75
iter:  36 13:00:49 -1583.479477  -0.83  -1.69
iter:  37 13:07:08 -1583.149549  -0.70  -1.64
iter:  38 13:13:12 -1582.123032  -1.21  -1.62
iter:  39 13:19:27 -1582.470268  -1.47  -1.66
Writing to output.gpw (mode='')

iter:  40 13:25:35 -1581.623172  -1.30  -1.63
iter:  41 13:31:56 -1581.858999  -1.70  -1.71
iter:  42 13:38:03 -1582.484493  -0.51  -1.70
iter:  43 13:44:18 -1580.854012  -0.91  -1.71
iter:  44 13:50:27 -1581.678590  -0.86  -1.88
Writing to output.gpw (mode='')

iter:  45 13:56:39 -1581.407428  -0.88  -1.95
iter:  46 14:02:52 -1581.426777  -1.67  -1.94
iter:  47 14:09:09 -1581.309040c -1.77  -1.91
iter:  48 14:15:20 -1581.363213c -2.10  -1.92
iter:  49 14:21:39 -1581.264321c -2.13  -1.89
Writing to output.gpw (mode='')

iter:  50 14:28:01 -1582.397507  -1.37  -1.90
iter:  51 14:34:36 -1580.682254  -1.23  -1.68
iter:  52 14:40:45 -1581.030381  -1.23  -1.87
iter:  53 14:46:59 -1580.956169  -1.92  -1.89
iter:  54 14:53:19 -1580.929026c -1.19  -1.97
Writing to output.gpw (mode='')

iter:  55 14:59:53 -1581.092182c -1.44  -2.01
iter:  56 15:06:06 -1581.173015  -0.87  -2.10
iter:  57 15:12:35 -1581.039582c -2.03  -2.09
iter:  58 15:18:43 -1582.923411  -0.87  -2.12
iter:  59 15:24:56 -1581.980187  -1.34  -1.66
Writing to output.gpw (mode='')

iter:  60 15:31:03 -1582.800107  -1.68  -1.68
iter:  61 15:37:20 -1582.176801  -1.64  -1.63
iter:  62 15:43:31 -1585.230318  -1.07  -1.64
iter:  63 15:49:51 -1582.619778  -1.23  -1.46
iter:  64 15:55:57 -1585.069632  -1.32  -1.51
Writing to output.gpw (mode='')

iter:  65 16:02:14 -1583.597001  -1.70  -1.45
iter:  66 16:08:29 -1580.568902  -0.52  -1.47
iter:  67 16:14:44 -1581.202859  -0.93  -1.84
iter:  68 16:21:03 -1580.770637  -1.18  -1.89
iter:  69 16:27:15 -1580.996641  -1.19  -1.99
Writing to output.gpw (mode='')

iter:  70 16:33:44 -1581.122459  -1.47  -1.98
iter:  71 16:40:07 -1581.609011  -1.14  -2.00
iter:  72 16:46:21 -1580.993657  -0.82  -1.97
iter:  73 16:52:48 -1582.888944  -0.87  -2.11
iter:  74 16:58:54 -1583.169708  -0.36  -1.73
Writing to output.gpw (mode='')

iter:  75 17:05:18 -1582.567738  -1.22  -1.68
iter:  76 17:11:27 -1581.552303  -1.62  -1.68
iter:  77 17:17:40 -1580.651268  -1.48  -1.73
iter:  78 17:24:14 -1580.701691  -0.87  -1.98
iter:  79 17:30:31 -1580.805182c -1.30  -2.04
Writing to output.gpw (mode='')

iter:  80 17:36:57 -1580.977705  -0.83  -2.17
iter:  81 17:43:14 -1580.991959  -1.43  -2.18
iter:  82 17:49:27 -1581.059648c -2.01  -2.26
iter:  83 17:55:46 -1581.068281c -1.82  -2.23
iter:  84 18:01:54 -1581.075793c -2.33  -2.19
Writing to output.gpw (mode='')

iter:  85 18:08:24 -1581.355224  -2.02  -2.20
iter:  86 18:14:54 -1581.164063  -1.94  -2.06
iter:  87 18:21:02 -1581.102507  -2.41  -2.10
iter:  88 18:27:34 -1581.071432c -1.91  -2.10
iter:  89 18:33:54 -1581.006671c -2.06  -2.14
Writing to output.gpw (mode='')

iter:  90 18:40:33 -1580.935112c -1.98  -2.16
iter:  91 18:46:50 -1580.944619c -1.61  -2.27
iter:  92 18:53:10 -1580.967033c -2.38  -2.32
iter:  93 18:59:19 -1581.178336  -1.88  -2.35
iter:  94 19:05:38 -1581.030651  -2.24  -2.15
Writing to output.gpw (mode='')

iter:  95 19:12:01 -1582.361346  -1.11  -2.18
iter:  96 19:18:20 -1581.378322  -1.58  -1.72
iter:  97 19:24:30 -1581.974062  -1.87  -1.78
iter:  98 19:30:51 -1582.169896  -1.91  -1.74
iter:  99 19:37:11 -1581.058258  -1.75  -1.71
Writing to output.gpw (mode='')

iter: 100 19:43:39 -1580.591159  -1.14  -1.82
iter: 101 19:49:48 -1580.938342  -1.12  -2.13
iter: 102 19:56:08 -1581.000440  -1.97  -2.14
iter: 103 20:02:27 -1581.004546c -1.72  -2.16
iter: 104 20:08:42 -1581.036403c -1.47  -2.21
Writing to output.gpw (mode='')

iter: 105 20:15:00 -1581.017306c -2.14  -2.22
iter: 106 20:21:16 -1581.005670c -2.78  -2.23
iter: 107 20:27:23 -1581.200968  -1.77  -2.25
iter: 108 20:33:48 -1580.954405  -1.40  -2.16
iter: 109 20:40:13 -1581.094200  -1.34  -2.38
Writing to output.gpw (mode='')

iter: 110 20:46:37 -1581.110406c -1.40  -2.28
iter: 111 20:52:56 -1581.113765c -1.98  -2.24
iter: 112 20:59:22 -1581.164970c -2.05  -2.21
iter: 113 21:05:39 -1581.337412  -1.74  -2.14
iter: 114 21:12:06 -1581.418189  -1.54  -2.04
Writing to output.gpw (mode='')

iter: 115 21:18:34 -1580.939925  -1.80  -1.99
iter: 116 21:24:59 -1581.006914  -1.95  -2.17
iter: 117 21:31:38 -1581.133545  -2.70  -2.19
iter: 118 21:37:53 -1581.986001  -1.56  -2.12
iter: 119 21:44:10 -1582.122501  -1.38  -1.78
Writing to output.gpw (mode='')

iter: 120 21:50:32 -1580.980517  -1.76  -1.75
iter: 121 21:56:42 -1580.650815  -1.24  -1.90
iter: 122 22:02:40 -1580.859134  -1.00  -2.13
iter: 123 22:09:18 -1581.213182  -1.93  -2.20
iter: 124 22:15:25 -1581.677704  -1.98  -2.08
Writing to output.gpw (mode='')

iter: 125 22:22:04 -1581.484775  -1.79  -1.88
iter: 126 22:28:22 -1580.966377  -1.34  -1.87
iter: 127 22:34:46 -1581.024146  -1.41  -2.31
iter: 128 22:40:59 -1581.021657c -1.41  -2.36
iter: 129 22:46:59 -1581.210083  -1.91  -2.48
Writing to output.gpw (mode='')

iter: 130 22:53:07 -1581.022920  -2.22  -2.18
iter: 131 22:59:15 -1580.983885  -2.38  -2.33
iter: 132 23:05:30 -1580.999434c -1.94  -2.71
iter: 133 23:11:51 -1581.008922c -2.08  -2.75
iter: 134 23:18:07 -1581.032642c -2.36  -2.74
Writing to output.gpw (mode='')

iter: 135 23:24:31 -1581.037802c -2.17  -2.60
iter: 136 23:30:46 -1581.064055c -2.82  -2.55
iter: 137 23:37:01 -1581.034432c -3.03  -2.41
iter: 138 23:43:08 -1581.074051c -3.06  -2.44
iter: 139 23:49:35 -1581.103873c -2.79  -2.33
Writing to output.gpw (mode='')

iter: 140 23:55:49 -1581.035629c -2.82  -2.28
iter: 141 00:02:07 -1581.004553c -2.87  -2.34
iter: 142 00:08:03 -1580.998296c -2.19  -2.56
iter: 143 00:14:11 -1581.006708c -2.49  -2.62
iter: 144 00:20:13 -1581.012201c -2.18  -2.67
Writing to output.gpw (mode='')

iter: 145 00:26:15 -1581.021272c -3.03  -2.70
iter: 146 00:32:18 -1581.024273c -2.71  -2.65
iter: 147 00:38:23 -1581.027225c -3.24  -2.64
iter: 148 00:44:29 -1581.047212c -2.93  -2.60
iter: 149 00:50:46 -1581.071151c -2.42  -2.52
Writing to output.gpw (mode='')

iter: 150 00:57:05 -1581.021120c -2.78  -2.45
iter: 151 01:03:22 -1581.052949c -3.27  -2.53
iter: 152 01:09:35 -1581.009603c -2.80  -2.46
iter: 153 01:15:59 -1581.007736c -2.60  -2.56
iter: 154 01:22:13 -1581.042258c -2.11  -2.67
Writing to output.gpw (mode='')

iter: 155 01:28:38 -1581.015439c -3.09  -2.59
iter: 156 01:34:47 -1581.047102c -2.94  -2.65
iter: 157 01:41:15 -1581.018397c -2.90  -2.54
iter: 158 01:47:25 -1581.050828c -2.40  -2.62
iter: 159 01:53:41 -1581.008836c -2.40  -2.52
Writing to output.gpw (mode='')

iter: 160 02:00:01 -1581.016803c -2.52  -2.69
iter: 161 02:06:14 -1581.048236c -2.73  -2.68
iter: 162 02:12:16 -1581.058617c -2.30  -2.56
iter: 163 02:18:36 -1581.091134c -2.63  -2.49
iter: 164 02:24:46 -1581.075164c -2.30  -2.39
Writing to output.gpw (mode='')

iter: 165 02:31:01 -1581.039311c -3.37  -2.38
iter: 166 02:37:18 -1581.030423c -2.32  -2.44
iter: 167 02:43:39 -1581.032697c -2.28  -2.64
iter: 168 02:50:13 -1581.026166c -2.98  -2.63
iter: 169 02:56:31 -1581.025448c -3.38  -2.64
Writing to output.gpw (mode='')

iter: 170 03:02:42 -1581.040322c -3.28  -2.64
iter: 171 03:08:57 -1581.020528c -2.71  -2.57
iter: 172 03:15:14 -1581.023662c -2.66  -2.63
iter: 173 03:21:46 -1581.029472c -2.97  -2.64
iter: 174 03:28:09 -1581.029899c -3.25  -2.61
Writing to output.gpw (mode='')

iter: 175 03:34:23 -1581.020421c -2.96  -2.61
iter: 176 03:40:38 -1581.021968c -3.00  -2.66
iter: 177 03:46:42 -1581.025057c -3.41  -2.67
iter: 178 03:52:36 -1581.018655c -2.92  -2.79
iter: 179 03:58:54 -1581.019547c -3.04  -3.07
Writing to output.gpw (mode='')

iter: 180 04:05:17 -1581.019815c -3.71  -3.10
iter: 181 04:11:22 -1581.019868c -3.57  -3.09
iter: 182 04:17:38 -1581.020083c -4.06  -3.08
iter: 183 04:23:53 -1581.019759c -4.15  -3.10
iter: 184 04:30:14 -1581.022176c -3.94  -3.10
Writing to output.gpw (mode='')

iter: 185 04:36:19 -1581.025795c -3.51  -2.99
iter: 186 04:42:32 -1581.021468c -3.41  -2.87
iter: 187 04:48:38 -1581.019254c -4.04  -2.92
iter: 188 04:54:52 -1581.018284c -3.27  -3.01
iter: 189 05:01:04 -1581.019248c -2.98  -3.22
Writing to output.gpw (mode='')

iter: 190 05:07:25 -1581.019630c -3.54  -3.21
iter: 191 05:13:37 -1581.021443c -3.46  -3.20
iter: 192 05:19:52 -1581.019966c -3.89  -3.11
iter: 193 05:25:50 -1581.023765c -3.83  -3.14
iter: 194 05:31:59 -1581.024308c -3.57  -2.92
Writing to output.gpw (mode='')

iter: 195 05:38:13 -1581.024949c -3.90  -2.89
iter: 196 05:44:38 -1581.025107c -3.79  -2.86
iter: 197 05:51:01 -1581.020314c -3.47  -2.84
iter: 198 05:57:22 -1581.022070c -3.20  -3.07
iter: 199 06:03:44 -1581.022850c -3.03  -3.01
Writing to output.gpw (mode='')

iter: 200 06:10:11 -1581.023108c -2.78  -3.03
iter: 201 06:16:16 -1581.019676c -3.65  -3.01
iter: 202 06:22:42 -1581.020695c -3.96  -3.09
iter: 203 06:29:06 -1581.018711c -3.75  -3.07
iter: 204 06:35:42 -1581.019168c -3.55  -3.23
Writing to output.gpw (mode='')

iter: 205 06:42:09 -1581.019486c -3.22  -3.45
iter: 206 06:48:51 -1581.019263c -4.00  -3.42
iter: 207 06:55:26 -1581.019110c -4.24  -3.43
iter: 208 07:01:52 -1581.019246c -4.36  -3.45
iter: 209 07:08:16 -1581.020190c -4.06  -3.44
Writing to output.gpw (mode='')

iter: 210 07:14:52 -1581.020568c -3.93  -3.25
iter: 211 07:21:23 -1581.019195c -3.94  -3.24
iter: 212 07:28:01 -1581.019495c -4.09  -3.36
iter: 213 07:34:36 -1581.019774c -4.28  -3.35
iter: 214 07:40:59 -1581.020295c -3.91  -3.33
Writing to output.gpw (mode='')

iter: 215 07:47:43 -1581.018916c -3.77  -3.27
iter: 216 07:54:05 -1581.019069c -4.32  -3.43
iter: 217 08:00:33 -1581.019233c -4.37  -3.45
iter: 218 08:06:50 -1581.019471c -3.83  -3.44
iter: 219 08:13:28 -1581.019582c -4.34  -3.44
Writing to output.gpw (mode='')

iter: 220 08:19:24 -1581.019643c -4.22  -3.40
iter: 221 08:25:46 -1581.019264c -4.82  -3.37
iter: 222 08:31:45 -1581.019259c -4.70  -3.43
iter: 223 08:37:47 -1581.019283c -4.32  -3.50
iter: 224 08:43:49 -1581.019354c -5.14  -3.49
Writing to output.gpw (mode='')

iter: 225 08:50:17 -1581.019614c -4.47  -3.47
iter: 226 08:56:41 -1581.019827c -4.14  -3.41
iter: 227 09:02:50 -1581.020013c -4.35  -3.36
iter: 228 09:09:10 -1581.019308c -4.57  -3.31
iter: 229 09:15:26 -1581.019197c -4.59  -3.37
Writing to output.gpw (mode='')

iter: 230 09:21:29 -1581.019252c -4.29  -3.50
iter: 231 09:27:43 -1581.019240c -4.91  -3.50
iter: 232 09:33:55 -1581.020096c -4.43  -3.52
iter: 233 09:40:12 -1581.019282c -4.34  -3.34
iter: 234 09:46:21 -1581.019157c -4.52  -3.43
Writing to output.gpw (mode='')

iter: 235 09:52:42 -1581.019297c -4.38  -3.62
iter: 236 09:58:50 -1581.019826c -4.75  -3.61
iter: 237 10:05:22 -1581.019208c -4.49  -3.41
iter: 238 10:11:22 -1581.019223c -4.55  -3.51
iter: 239 10:17:48 -1581.019691c -4.02  -3.72
Writing to output.gpw (mode='')

iter: 240 10:24:27 -1581.019696c -3.84  -3.56
iter: 241 10:31:02 -1581.019021c -4.53  -3.50
iter: 242 10:37:25 -1581.019129c -4.54  -3.81
iter: 243 10:43:41 -1581.019259c -5.06  -3.83
iter: 244 10:50:03 -1581.019456c -5.04  -3.75
Writing to output.gpw (mode='')

iter: 245 10:56:22 -1581.019148c -4.31  -3.59
iter: 246 11:02:38 -1581.019177c -4.14  -3.84
iter: 247 11:08:47 -1581.019327c -4.73  -3.84
iter: 248 11:15:07 -1581.019253c -4.63  -3.80
iter: 249 11:21:17 -1581.019258c -5.45  -3.80
Writing to output.gpw (mode='')

iter: 250 11:27:35 -1581.019282c -5.03  -3.78
iter: 251 11:33:45 -1581.019271c -5.18  -3.75
iter: 252 11:40:06 -1581.019160c -5.01  -3.74
iter: 253 11:46:22 -1581.019197c -4.50  -3.86
iter: 254 11:52:28 -1581.019139c -4.58  -3.86
Writing to output.gpw (mode='')

iter: 255 11:58:53 -1581.019147c -4.98  -3.97
iter: 256 12:05:19 -1581.019149c -5.41  -4.00
iter: 257 12:11:36 -1581.019156c -6.03  -4.01c
iter: 258 12:17:52 -1581.019168c -5.59  -4.03c
iter: 259 12:24:14 -1581.019204c -5.00  -4.02c
Writing to output.gpw (mode='')

iter: 260 12:30:38 -1581.019295c -4.65  -3.88
iter: 261 12:37:03 -1581.019169c -4.74  -3.79
iter: 262 12:43:33 -1581.019200c -4.55  -4.12c
iter: 263 12:49:48 -1581.019344c -4.95  -4.04c
iter: 264 12:56:09 -1581.019324c -4.48  -3.73
Writing to output.gpw (mode='')

iter: 265 13:02:32 -1581.019314c -5.45  -3.70
iter: 266 13:08:56 -1581.019236c -5.55  -3.68
iter: 267 13:15:01 -1581.019153c -5.08  -3.71
iter: 268 13:21:20 -1581.019158c -5.15  -4.25c
iter: 269 13:27:20 -1581.019165c -5.97  -4.25c
Writing to output.gpw (mode='')

iter: 270 13:33:49 -1581.019171c -5.50  -4.27c
iter: 271 13:39:57 -1581.019182c -5.85  -4.24c
iter: 272 13:46:09 -1581.019186c -5.37  -4.22c
iter: 273 13:52:33 -1581.019167c -6.11  -4.18c
iter: 274 13:59:06 -1581.019165c -6.20  -4.24c
Writing to output.gpw (mode='')

iter: 275 14:05:18 -1581.019166c -6.01  -4.26c
iter: 276 14:11:45 -1581.019166c -5.93  -4.26c
iter: 277 14:18:32 -1581.019169c -5.83  -4.22c
iter: 278 14:24:56 -1581.019169c -5.98  -4.36c
iter: 279 14:31:18 -1581.019168c -6.29  -4.43c
Writing to output.gpw (mode='')

iter: 280 14:37:34 -1581.019168c -6.22  -4.50c
iter: 281 14:44:05 -1581.019169c -6.43  -4.57c
iter: 282 14:50:31 -1581.019171c -6.18  -4.59c
iter: 283 14:56:57 -1581.019193c -5.64  -4.51c
iter: 284 15:03:16 -1581.019172c -5.80  -4.16c
Writing to output.gpw (mode='')

iter: 285 15:09:36 -1581.019178c -5.67  -4.26c
iter: 286 15:15:50 -1581.019168c -6.00  -4.40c
iter: 287 15:22:07 -1581.019169c -6.36  -4.56c
iter: 288 15:28:30 -1581.019174c -5.67  -4.72c
iter: 289 15:34:50 -1581.019177c -6.06  -4.56c
Writing to output.gpw (mode='')

iter: 290 15:41:12 -1581.019175c -6.06  -4.43c
iter: 291 15:47:31 -1581.019180c -6.46  -4.42c
iter: 292 15:53:53 -1581.019179c -6.24  -4.30c
iter: 293 16:00:18 -1581.019169c -6.21  -4.28c
iter: 294 16:06:29 -1581.019171c -6.36  -4.53c
Writing to output.gpw (mode='')

iter: 295 16:12:42 -1581.019171c -6.73  -4.51c
iter: 296 16:19:11 -1581.019172c -6.20  -4.51c
iter: 297 16:25:21 -1581.019180c -5.99  -4.52c
iter: 298 16:31:24 -1581.019192c -5.56  -4.38c
iter: 299 16:37:42 -1581.019177c -6.03  -4.23c
Writing to output.gpw (mode='')

iter: 300 16:44:05 -1581.019171c -6.55  -4.30c
iter: 301 16:50:37 -1581.019170c -6.18  -4.52c
iter: 302 16:57:10 -1581.019171c -6.53  -4.56c
iter: 303 17:03:48 -1581.019172c -6.39  -4.60c
iter: 304 17:10:10 -1581.019172c -7.03  -4.61c
Writing to output.gpw (mode='')

iter: 305 17:16:44 -1581.019178c -6.15  -4.63c
iter: 306 17:22:53 -1581.019172c -6.40  -4.48c
iter: 307 17:29:20 -1581.019181c -6.51  -4.55c
iter: 308 17:35:52 -1581.019184c -6.10  -4.36c
iter: 309 17:42:10 -1581.019178c -6.51  -4.30c
Writing to output.gpw (mode='')

iter: 310 17:48:32 -1581.019175c -6.83  -4.35c
iter: 311 17:54:55 -1581.019173c -6.56  -4.39c
iter: 312 18:01:16 -1581.019181c -6.44  -4.47c
iter: 313 18:07:27 -1581.019171c -6.22  -4.38c
iter: 314 18:13:52 -1581.019172c -5.98  -4.65c
Writing to output.gpw (mode='')

iter: 315 18:20:09 -1581.019177c -6.12  -4.70c
iter: 316 18:26:32 -1581.019174c -6.38  -4.58c
iter: 317 18:32:51 -1581.019177c -6.12  -4.64c
iter: 318 18:39:07 -1581.019175c -6.48  -4.54c
iter: 319 18:45:25 -1581.019175c -7.04  -4.60c
Writing to output.gpw (mode='')

iter: 320 18:51:28 -1581.019174c -6.80  -4.63c
iter: 321 18:57:49 -1581.019174c -6.75  -4.77c
iter: 322 19:04:07 -1581.019174c -7.03  -4.76c
iter: 323 19:10:14 -1581.019174c -6.89  -4.74c
iter: 324 19:16:15 -1581.019174c -7.04  -4.81c
Writing to output.gpw (mode='')

iter: 325 19:22:30 -1581.019174c -6.84  -4.75c
iter: 326 19:28:41 -1581.019174c -7.16  -4.82c
iter: 327 19:35:06 -1581.019174c -6.79  -4.82c
iter: 328 19:41:26 -1581.019174c -6.52  -4.77c
iter: 329 19:47:58 -1581.019174c -6.60  -4.98c
Writing to output.gpw (mode='')

iter: 330 19:54:32 -1581.019174c -6.51  -4.96c
iter: 331 20:00:47 -1581.019174c -6.86  -4.91c
iter: 332 20:07:13 -1581.019174c -7.00  -4.93c
iter: 333 20:13:33 -1581.019174c -7.17  -5.07c
iter: 334 20:20:00 -1581.019174c -7.38  -5.04c
Writing to output.gpw (mode='')

iter: 335 20:26:07 -1581.019174c -7.31  -5.03c
iter: 336 20:32:07 -1581.019174c -7.55c -5.06c

Converged after 336 iterations.

Dipole moment: (-23.293756, -15.763933, -0.000116) |e|*Ang

Energy contributions relative to reference atoms: (reference = -666391.292358)

Kinetic:       +335.873734
Potential:     -234.982701
External:        +0.000000
XC:            -1664.696766
Entropy (-ST):   -0.000000
Local:          -17.213440
--------------------------
Free energy:   -1581.019174
Extrapolated:  -1581.019174

Dipole-layer corrected work functions: -inf, -inf eV

 Band  Eigenvalues  Occupancy
    0    -46.05591    2.00000
    1    -46.05585    2.00000
    2    -46.05551    2.00000
    3    -46.05550    2.00000
    4    -46.05542    2.00000
    5    -46.05541    2.00000
    6    -46.05326    2.00000
    7    -46.05326    2.00000
    8    -46.05320    2.00000
    9    -46.05320    2.00000
   10    -46.05286    2.00000
   11    -46.05286    2.00000
   12    -46.05285    2.00000
   13    -46.05285    2.00000
   14    -46.05277    2.00000
   15    -46.05277    2.00000
   16    -46.05276    2.00000
   17    -46.05276    2.00000
   18    -45.37363    2.00000
   19    -45.37194    2.00000
   20    -45.37171    2.00000
   21    -45.36911    2.00000
   22    -45.36911    2.00000
   23    -45.36832    2.00000
   24    -45.36831    2.00000
   25    -45.36831    2.00000
   26    -45.36808    2.00000
   27    -45.36808    2.00000
   28    -45.36808    2.00000
   29    -45.36649    2.00000
   30    -45.36649    2.00000
   31    -45.36638    2.00000
   32    -45.36625    2.00000
   33    -45.36625    2.00000
   34    -45.36547    2.00000
   35    -45.36547    2.00000
   36    -27.00693    2.00000
   37    -27.00673    2.00000
   38    -27.00656    2.00000
   39    -27.00627    2.00000
   40    -27.00613    2.00000
   41    -27.00570    2.00000
   42    -27.00252    2.00000
   43    -27.00252    2.00000
   44    -27.00243    2.00000
   45    -27.00243    2.00000
   46    -27.00200    2.00000
   47    -27.00200    2.00000
   48    -27.00200    2.00000
   49    -27.00200    2.00000
   50    -27.00186    2.00000
   51    -27.00186    2.00000
   52    -27.00179    2.00000
   53    -27.00179    2.00000
   54    -26.96302    2.00000
   55    -26.96294    2.00000
   56    -26.96263    2.00000
   57    -26.96252    2.00000
   58    -26.96234    2.00000
   59    -26.96208    2.00000
   60    -26.95863    2.00000
   61    -26.95863    2.00000
   62    -26.95854    2.00000
   63    -26.95854    2.00000
   64    -26.95827    2.00000
   65    -26.95827    2.00000
   66    -26.95815    2.00000
   67    -26.95815    2.00000
   68    -26.95746    2.00000
   69    -26.95746    2.00000
   70    -26.95732    2.00000
   71    -26.95732    2.00000
   72    -26.93170    2.00000
   73    -26.93170    2.00000
   74    -26.93163    2.00000
   75    -26.93163    2.00000
   76    -26.93149    2.00000
   77    -26.93149    2.00000
   78    -26.93140    2.00000
   79    -26.93139    2.00000
   80    -26.93138    2.00000
   81    -26.93138    2.00000
   82    -26.93130    2.00000
   83    -26.93130    2.00000
   84    -26.88802    2.00000
   85    -26.88795    2.00000
   86    -26.88778    2.00000
   87    -26.88771    2.00000
   88    -26.88769    2.00000
   89    -26.88761    2.00000
   90    -26.34153    2.00000
   91    -26.34015    2.00000
   92    -26.33981    2.00000
   93    -26.33542    2.00000
   94    -26.33542    2.00000
   95    -26.33271    2.00000
   96    -26.33265    2.00000
   97    -26.33265    2.00000
   98    -26.33249    2.00000
   99    -26.33231    2.00000
  100    -26.33231    2.00000
  101    -26.32702    2.00000
  102    -26.32702    2.00000
  103    -26.32584    2.00000
  104    -26.32584    2.00000
  105    -26.32550    2.00000
  106    -26.32550    2.00000
  107    -26.31980    2.00000
  108    -26.30302    2.00000
  109    -26.30302    2.00000
  110    -26.30283    2.00000
  111    -26.30283    2.00000
  112    -26.29531    2.00000
  113    -26.29345    2.00000
  114    -26.29345    2.00000
  115    -26.29318    2.00000
  116    -26.29318    2.00000
  117    -26.29001    2.00000
  118    -26.29001    2.00000
  119    -26.28220    2.00000
  120    -26.28220    2.00000
  121    -26.27824    2.00000
  122    -26.27824    2.00000
  123    -26.27507    2.00000
  124    -26.27481    2.00000
  125    -26.26028    2.00000
  126    -26.26028    2.00000
  127    -26.26011    2.00000
  128    -26.26011    2.00000
  129    -26.25674    2.00000
  130    -26.25182    2.00000
  131    -26.25179    2.00000
  132    -26.25143    2.00000
  133    -26.25139    2.00000
  134    -26.25138    2.00000
  135    -26.25138    2.00000
  136    -26.25004    2.00000
  137    -26.25004    2.00000
  138    -26.24976    2.00000
  139    -26.24976    2.00000
  140    -26.24171    2.00000
  141    -26.24137    2.00000
  142    -26.24097    2.00000
  143    -26.23583    2.00000
  144     -6.43068    2.00000
  145     -5.85259    2.00000
  146     -5.85249    2.00000
  147     -5.34898    2.00000
  148     -5.28510    2.00000
  149     -5.28510    2.00000
  150     -4.87155    2.00000
  151     -4.87144    2.00000
  152     -4.77680    2.00000
  153     -4.77680    2.00000
  154     -4.77666    2.00000
  155     -4.77666    2.00000
  156     -4.28013    2.00000
  157     -4.27980    2.00000
  158     -4.27691    2.00000
  159     -4.27691    2.00000
  160     -3.92934    2.00000
  161     -3.83041    2.00000
  162     -3.83041    2.00000
  163     -3.83026    2.00000
  164     -3.83026    2.00000
  165     -3.81463    2.00000
  166     -3.81434    2.00000
  167     -3.42604    2.00000
  168     -3.42604    2.00000
  169     -3.42561    2.00000
  170     -3.42561    2.00000
  171     -3.09351    2.00000
  172     -3.09351    2.00000
  173     -2.96373    2.00000
  174     -2.89745    2.00000
  175     -2.89745    2.00000
  176     -2.75911    2.00000
  177     -2.75911    2.00000
  178     -2.75883    2.00000
  179     -2.75883    2.00000

Fermi level: inf

Writing to output.gpw (mode='')


Forces in eV/Ang:
  0 Ca    0.00707    0.00000    0.12557
  1 Ca    0.00000    0.00000    0.15227
  2 Ca   -0.00707    0.00000    0.12557
  3 Ca    0.00707    0.00000    0.12557
  4 Ca    0.00000    0.00000    0.15227
  5 Ca   -0.00707    0.00000    0.12557
  6 Ca    0.00707   -0.00000    0.12557
  7 Ca    0.00000   -0.00000    0.15227
  8 Ca   -0.00707   -0.00000    0.12557
  9 Ca    0.00000    0.00000    0.09999
 10 Ca    0.00420    0.00000    0.09278
 11 Ca   -0.00420    0.00000    0.09278
 12 Ca    0.00000    0.00000    0.09999
 13 Ca    0.00420    0.00000    0.09277
 14 Ca   -0.00420    0.00000    0.09277
 15 Ca    0.00000   -0.00000    0.09999
 16 Ca    0.00420   -0.00000    0.09277
 17 Ca   -0.00420   -0.00000    0.09277
 18 Ca   -0.00415    0.00000   -0.09259
 19 Ca   -0.00000    0.00000   -0.09983
 20 Ca    0.00415    0.00000   -0.09259
 21 Ca   -0.00415    0.00000   -0.09259
 22 Ca    0.00000    0.00000   -0.09983
 23 Ca    0.00415    0.00000   -0.09259
 24 Ca   -0.00415   -0.00000   -0.09259
 25 Ca    0.00000   -0.00000   -0.09983
 26 Ca    0.00415   -0.00000   -0.09259
 27 Ca    0.00000    0.00000   -0.15213
 28 Ca   -0.00705    0.00000   -0.12545
 29 Ca    0.00705    0.00000   -0.12545
 30 Ca    0.00000    0.00000   -0.15213
 31 Ca   -0.00705    0.00000   -0.12545
 32 Ca    0.00705    0.00000   -0.12545
 33 Ca    0.00000   -0.00000   -0.15213
 34 Ca   -0.00705   -0.00000   -0.12545
 35 Ca    0.00705   -0.00000   -0.12545

System changes: positions 

Initializing position-dependent things.

Density initialized from wave functions
        .----------------------------------------.  
       /|                                        |  
      / |                                        |  
     /  |                                        |  
    /   |                                        |  
   /    |                                        |  
  /     |                                        |  
 *      |                                        |  
 |      |                                        |  
 |      |                                        |  
 |      |                                        |  
 |      |                                        |  
 |      |                                        |  
 |      |                                        |  
 |      |                                        |  
 |    Ca|          Ca            Ca              |  
 |      |     Ca           Ca            Ca      |  
 | Ca   |        Ca            Ca                |  
 |      |  Ca            Ca            Ca        |  
 Ca     |      Ca           Ca                   |  
 |    Ca|          Ca            Ca              |  
 |      |Ca   Ca       Ca  Ca       Ca   Ca      |  
 | Ca   |        Ca            Ca                |  
 |      |  Ca            Ca            Ca        |  
 Ca     |      Ca           Ca                   |  
 |      |Ca            Ca           Ca           |  
 |      |                                        |  
 |      |                                        |  
 |      |                                        |  
 |      |                                        |  
 |      |                                        |  
 |      |                                        |  
 |      .----------------------------------------.  
 |     /                                        /   
 |    /                                        /    
 |   /                                        /     
 |  /                                        /      
 | /                                        /       
 |/                                        /        
 *----------------------------------------*         

Positions:
   0 Ca     2.790000    1.972828   10.000000    ( 0.0000,  0.0000,  0.0000)
   1 Ca     8.370000    1.972828   10.000000    ( 0.0000,  0.0000,  0.0000)
   2 Ca    13.950000    1.972828   10.000000    ( 0.0000,  0.0000,  0.0000)
   3 Ca     2.790000    5.918484   10.000000    ( 0.0000,  0.0000,  0.0000)
   4 Ca     8.370000    5.918484   10.000000    ( 0.0000,  0.0000,  0.0000)
   5 Ca    13.950000    5.918484   10.000000    ( 0.0000,  0.0000,  0.0000)
   6 Ca     2.790000    9.864140   10.000000    ( 0.0000,  0.0000,  0.0000)
   7 Ca     8.370000    9.864140   10.000000    ( 0.0000,  0.0000,  0.0000)
   8 Ca    13.950000    9.864140   10.000000    ( 0.0000,  0.0000,  0.0000)
   9 Ca     0.000000    0.000000   11.972828    ( 0.0000,  0.0000,  0.0000)
  10 Ca     5.580000    0.000000   11.972828    ( 0.0000,  0.0000,  0.0000)
  11 Ca    11.160000    0.000000   11.972828    ( 0.0000,  0.0000,  0.0000)
  12 Ca     0.000000    3.945656   11.972828    ( 0.0000,  0.0000,  0.0000)
  13 Ca     5.580000    3.945656   11.972828    ( 0.0000,  0.0000,  0.0000)
  14 Ca    11.160000    3.945656   11.972828    ( 0.0000,  0.0000,  0.0000)
  15 Ca     0.000000    7.891312   11.972828    ( 0.0000,  0.0000,  0.0000)
  16 Ca     5.580000    7.891312   11.972828    ( 0.0000,  0.0000,  0.0000)
  17 Ca    11.160000    7.891312   11.972828    ( 0.0000,  0.0000,  0.0000)
  18 Ca     2.789941    1.972828   13.944333    ( 0.0000,  0.0000,  0.0000)
  19 Ca     8.370000    1.972828   13.944230    ( 0.0000,  0.0000,  0.0000)
  20 Ca    13.950059    1.972828   13.944333    ( 0.0000,  0.0000,  0.0000)
  21 Ca     2.789941    5.918484   13.944333    ( 0.0000,  0.0000,  0.0000)
  22 Ca     8.370000    5.918484   13.944230    ( 0.0000,  0.0000,  0.0000)
  23 Ca    13.950059    5.918484   13.944333    ( 0.0000,  0.0000,  0.0000)
  24 Ca     2.789941    9.864140   13.944333    ( 0.0000,  0.0000,  0.0000)
  25 Ca     8.370000    9.864140   13.944230    ( 0.0000,  0.0000,  0.0000)
  26 Ca    13.950059    9.864140   13.944333    ( 0.0000,  0.0000,  0.0000)
  27 Ca     0.000000    0.000000   15.916310    ( 0.0000,  0.0000,  0.0000)
  28 Ca     5.579899    0.000000   15.916692    ( 0.0000,  0.0000,  0.0000)
  29 Ca    11.160101    0.000000   15.916692    ( 0.0000,  0.0000,  0.0000)
  30 Ca     0.000000    3.945656   15.916310    ( 0.0000,  0.0000,  0.0000)
  31 Ca     5.579899    3.945656   15.916692    ( 0.0000,  0.0000,  0.0000)
  32 Ca    11.160101    3.945656   15.916692    ( 0.0000,  0.0000,  0.0000)
  33 Ca     0.000000    7.891312   15.916310    ( 0.0000,  0.0000,  0.0000)
  34 Ca     5.579899    7.891312   15.916692    ( 0.0000,  0.0000,  0.0000)
  35 Ca    11.160101    7.891312   15.916692    ( 0.0000,  0.0000,  0.0000)

Unit cell:
           periodic     x           y           z      points  spacing
  1. axis:    yes   16.740000    0.000000    0.000000   104     0.1610
  2. axis:    yes    0.000000   11.836968    0.000000    72     0.1644
  3. axis:    no     0.000000    0.000000   25.918484   160     0.1620

  Lengths:  16.740000  11.836968  25.918484
  Angles:   90.000000  90.000000  90.000000

Effective grid spacing dv^(1/3) = 0.1624

     iter     time        total  log10-change:
                         energy  eigst   dens
iter:   1 20:38:39 -1581.022739  -4.01
iter:   2 20:44:56 -1581.022831  -4.35  -4.02c
iter:   3 20:51:08 -1581.022931c -4.52  -3.86
iter:   4 20:57:34 -1581.022884c -4.60  -3.72
Writing to output.gpw (mode='')

iter:   5 21:04:07 -1581.022727c -4.60  -3.68
iter:   6 21:10:30 -1581.022798c -4.15  -3.97
iter:   7 21:16:56 -1581.022880c -4.85  -3.93
iter:   8 21:23:26 -1581.022899c -4.35  -3.81
iter:   9 21:29:40 -1581.023851c -4.31  -3.74
Writing to output.gpw (mode='')

iter:  10 21:36:01 -1581.024270c -3.90  -3.34
iter:  11 21:42:29 -1581.024075c -4.24  -3.28
iter:  12 21:48:51 -1581.023483c -4.62  -3.25
iter:  13 21:54:58 -1581.023255c -5.29  -3.25
iter:  14 22:01:25 -1581.023992c -4.83  -3.26
Writing to output.gpw (mode='')

iter:  15 22:07:40 -1581.024045c -4.53  -3.21
iter:  16 22:14:05 -1581.023615c -4.89  -3.19
iter:  17 22:20:21 -1581.024977c -3.25  -3.20
iter:  18 22:26:41 -1581.023572c -3.69  -3.25
iter:  19 22:33:05 -1581.022359c -3.85  -3.28
Writing to output.gpw (mode='')

iter:  20 22:39:34 -1581.022716c -3.53  -4.01c
iter:  21 22:45:33 -1581.022705c -4.43  -4.06c
iter:  22 22:51:42 -1581.022791c -4.82  -4.05c
iter:  23 22:58:06 -1581.022804c -4.60  -3.91
iter:  24 23:04:23 -1581.022673c -5.34  -3.81
Writing to output.gpw (mode='')

iter:  25 23:10:35 -1581.022672c -5.50  -3.92
iter:  26 23:16:43 -1581.022676c -5.19  -4.01c
iter:  27 23:22:52 -1581.022678c -5.40  -4.04c
iter:  28 23:29:15 -1581.022697c -5.17  -4.07c
iter:  29 23:35:40 -1581.022723c -4.95  -4.13c
Writing to output.gpw (mode='')

iter:  30 23:42:02 -1581.022716c -5.36  -4.10c
iter:  31 23:48:21 -1581.022748c -5.37  -4.06c
iter:  32 23:54:41 -1581.022721c -5.46  -3.96
iter:  33 00:01:10 -1581.022692c -6.00  -3.95
iter:  34 00:07:36 -1581.022682c -5.93  -3.99
Writing to output.gpw (mode='')

iter:  35 00:14:21 -1581.022670c -5.35  -4.05c
iter:  36 00:20:42 -1581.022691c -5.10  -4.33c
iter:  37 00:27:02 -1581.022697c -5.66  -4.30c
iter:  38 00:33:16 -1581.022685c -5.61  -4.29c
iter:  39 00:39:35 -1581.022690c -5.87  -4.34c
Writing to output.gpw (mode='')

iter:  40 00:45:45 -1581.022692c -5.94  -4.31c
iter:  41 00:52:18 -1581.022724c -5.63  -4.27c
iter:  42 00:58:22 -1581.022713c -5.57  -4.03c
iter:  43 01:04:54 -1581.022755c -5.46  -4.02c
iter:  44 01:11:16 -1581.022757c -5.24  -3.91
Writing to output.gpw (mode='')

iter:  45 01:17:27 -1581.022723c -5.72  -3.89
iter:  46 01:23:35 -1581.022721c -5.84  -3.90
iter:  47 01:29:47 -1581.022714c -6.03  -3.90
iter:  48 01:36:24 -1581.022732c -5.66  -3.91
iter:  49 01:42:37 -1581.022749c -5.41  -3.87
Writing to output.gpw (mode='')

iter:  50 01:48:38 -1581.022738c -5.11  -3.89
iter:  51 01:54:56 -1581.022721c -4.80  -3.88
iter:  52 02:01:19 -1581.022729c -4.56  -3.88
iter:  53 02:07:51 -1581.022776c -4.33  -4.06c
iter:  54 02:14:11 -1581.022674c -5.16  -3.99
Writing to output.gpw (mode='')

iter:  55 02:20:32 -1581.022671c -5.50  -4.10c
iter:  56 02:26:58 -1581.022711c -5.33  -4.15c
iter:  57 02:33:19 -1581.022718c -5.54  -4.13c
iter:  58 02:39:28 -1581.022786c -5.25  -4.07c
iter:  59 02:45:51 -1581.022771c -4.98  -3.91
Writing to output.gpw (mode='')

iter:  60 02:52:07 -1581.022792c -5.51  -3.87
iter:  61 02:58:30 -1581.022725c -5.37  -3.82
iter:  62 03:04:43 -1581.022728c -5.61  -3.85
iter:  63 03:11:11 -1581.023009c -4.97  -3.86
iter:  64 03:17:24 -1581.022597c -4.49  -3.65
Writing to output.gpw (mode='')

iter:  65 03:23:45 -1581.022690c -4.29  -3.84
iter:  66 03:30:17 -1581.022654c -4.82  -3.99
iter:  67 03:36:34 -1581.022716c -5.32  -4.21c
iter:  68 03:42:41 -1581.022712c -4.87  -4.10c
iter:  69 03:49:08 -1581.022684c -5.17  -4.09c
Writing to output.gpw (mode='')

iter:  70 03:55:33 -1581.022685c -5.07  -4.20c
iter:  71 04:01:48 -1581.022683c -5.36  -4.25c
iter:  72 04:08:07 -1581.022697c -5.73  -4.33c
iter:  73 04:14:33 -1581.022691c -5.58  -4.24c
iter:  74 04:20:45 -1581.022702c -5.23  -4.35c
Writing to output.gpw (mode='')

iter:  75 04:27:09 -1581.022723c -5.49  -4.27c
iter:  76 04:33:34 -1581.022742c -5.07  -4.13c
iter:  77 04:39:48 -1581.022708c -5.77  -4.02c
iter:  78 04:46:04 -1581.022685c -6.21  -4.04c
iter:  79 04:52:18 -1581.022679c -5.50  -4.10c
Writing to output.gpw (mode='')

iter:  80 04:58:41 -1581.022689c -5.08  -4.25c
iter:  81 05:05:06 -1581.022684c -5.57  -4.32c
iter:  82 05:11:19 -1581.022685c -6.06  -4.41c
iter:  83 05:17:27 -1581.022691c -6.02  -4.43c
iter:  84 05:23:38 -1581.022697c -6.03  -4.42c
Writing to output.gpw (mode='')

iter:  85 05:29:44 -1581.022700c -5.55  -4.32c
iter:  86 05:35:42 -1581.022741c -5.78  -4.27c
iter:  87 05:42:00 -1581.022779c -4.96  -4.01c
iter:  88 05:48:26 -1581.022815c -5.25  -3.92
iter:  89 05:54:37 -1581.022909c -4.88  -3.85
Writing to output.gpw (mode='')

iter:  90 06:00:45 -1581.022698c -5.42  -3.75
iter:  91 06:06:54 -1581.022897c -5.48  -3.82
iter:  92 06:13:06 -1581.022676c -5.27  -3.68
iter:  93 06:19:19 -1581.022685c -5.40  -3.74
iter:  94 06:25:48 -1581.022655c -5.40  -3.78
Writing to output.gpw (mode='')

iter:  95 06:32:14 -1581.022677c -5.16  -3.84
iter:  96 06:38:54 -1581.022645c -5.14  -3.87
iter:  97 06:45:19 -1581.022672c -4.71  -4.24c
iter:  98 06:51:51 -1581.022688c -5.22  -4.33c
iter:  99 06:58:15 -1581.022713c -5.06  -4.32c
Writing to output.gpw (mode='')

iter: 100 07:04:22 -1581.022727c -5.01  -4.25c
iter: 101 07:10:33 -1581.022724c -5.37  -4.18c
iter: 102 07:16:51 -1581.022752c -5.46  -4.12c
iter: 103 07:23:07 -1581.022794c -4.97  -4.02c
iter: 104 07:29:34 -1581.022932c -4.91  -3.93
Writing to output.gpw (mode='')

iter: 105 07:35:46 -1581.022941c -4.49  -3.77
iter: 106 07:41:58 -1581.022769c -5.32  -3.71
iter: 107 07:48:24 -1581.023108c -5.00  -3.74
iter: 108 07:54:27 -1581.023136c -4.69  -3.55
iter: 109 08:00:37 -1581.023265c -4.94  -3.52
Writing to output.gpw (mode='')

iter: 110 08:06:58 -1581.022536c -4.56  -3.47
iter: 111 08:13:26 -1581.022638c -4.79  -3.62
iter: 112 08:19:32 -1581.022571c -4.72  -3.66
iter: 113 08:25:49 -1581.022642c -4.08  -3.88
iter: 114 08:32:18 -1581.022774c -4.04  -4.16c
Writing to output.gpw (mode='')

iter: 115 08:38:27 -1581.022738c -4.65  -4.10c
iter: 116 08:44:53 -1581.022715c -5.48  -4.12c
iter: 117 08:51:16 -1581.022729c -5.51  -4.17c
iter: 118 08:57:25 -1581.022755c -5.35  -4.15c
iter: 119 09:03:39 -1581.022760c -5.31  -4.08c
Writing to output.gpw (mode='')

iter: 120 09:09:42 -1581.022744c -5.18  -4.05c
iter: 121 09:16:20 -1581.022750c -5.27  -4.16c
iter: 122 09:22:31 -1581.022793c -5.32  -4.17c
iter: 123 09:28:53 -1581.022814c -5.12  -4.12c
iter: 124 09:35:13 -1581.022809c -5.34  -4.07c
Writing to output.gpw (mode='')

iter: 125 09:41:35 -1581.022821c -5.30  -4.06c
iter: 126 09:47:51 -1581.022841c -4.77  -4.03c
iter: 127 09:54:07 -1581.022879c -4.99  -4.13c
iter: 128 10:00:32 -1581.022905c -4.66  -4.15c
iter: 129 10:07:02 -1581.022979c -4.62  -4.13c
Writing to output.gpw (mode='')

iter: 130 10:13:23 -1581.023015c -4.70  -4.17c
iter: 131 10:19:38 -1581.023072c -4.83  -4.12c
iter: 132 10:26:01 -1581.023087c -5.22  -4.04c
iter: 133 10:32:20 -1581.023234c -4.98  -4.05c
iter: 134 10:38:39 -1581.023340c -4.78  -3.95
Writing to output.gpw (mode='')

iter: 135 10:45:15 -1581.023676c -4.13  -3.89
iter: 136 10:51:33 -1581.023782c -4.43  -3.90
iter: 137 10:57:44 -1581.023964c -4.39  -3.88
iter: 138 11:03:51 -1581.024427c -4.00  -3.84
iter: 139 11:10:10 -1581.024835c -4.09  -3.73
Writing to output.gpw (mode='')

iter: 140 11:16:32 -1581.025205c -3.86  -3.69
iter: 141 11:22:52 -1581.025449c -3.89  -3.65
iter: 142 11:28:54 -1581.026696c -3.50  -3.60
iter: 143 11:35:23 -1581.028145c -3.61  -3.64
iter: 144 11:41:37 -1581.028711c -3.74  -3.55
Writing to output.gpw (mode='')

iter: 145 11:47:53 -1581.029418c -3.60  -3.51
iter: 146 11:54:01 -1581.031884c -3.16  -3.46
iter: 147 12:00:18 -1581.032743c -3.47  -3.46
iter: 148 12:06:41 -1581.035346c -3.44  -3.44
iter: 149 12:12:54 -1581.037167c -3.82  -3.40
Writing to output.gpw (mode='')

iter: 150 12:19:12 -1581.050044c -2.46  -3.36
iter: 151 12:25:23 -1581.052904c -3.11  -3.12
iter: 152 12:31:36 -1581.055277c -3.06  -3.09
iter: 153 12:37:58 -1581.085138c -2.31  -3.07
iter: 154 12:44:08 -1581.093300c -2.28  -2.83
Writing to output.gpw (mode='')

iter: 155 12:50:40 -1581.100649c -2.82  -2.82
iter: 156 12:56:57 -1581.115438c -2.27  -2.80
iter: 157 13:03:18 -1581.124436c -2.53  -2.78
iter: 158 13:09:33 -1581.158687c -2.06  -2.76
iter: 159 13:15:54 -1581.223002c -1.90  -2.64
Writing to output.gpw (mode='')

iter: 160 13:22:33 -1581.211767c -2.02  -2.52
iter: 161 13:28:52 -1581.282487c -2.06  -2.49
iter: 162 13:35:08 -1581.352508c -1.80  -2.37
iter: 163 13:41:31 -1581.200560c -1.97  -2.29
iter: 164 13:47:43 -1581.444330  -1.96  -2.35
Writing to output.gpw (mode='')

iter: 165 13:53:59 -1581.465819  -1.62  -2.19
iter: 166 14:00:24 -1581.366328c -2.11  -2.15
iter: 167 14:06:43 -1581.293696c -1.82  -2.15
iter: 168 14:13:16 -1581.346038c -2.21  -2.21
iter: 169 14:19:41 -1581.630991  -1.81  -2.20
Writing to output.gpw (mode='')

iter: 170 14:26:12 -1581.400975  -1.42  -2.05
iter: 171 14:32:29 -1581.366499  -1.01  -2.11
iter: 172 14:38:56 -1581.638789  -1.32  -2.15
iter: 173 14:45:03 -1581.328565  -1.23  -2.10
iter: 174 14:51:33 -1583.031501  -0.80  -2.18
Writing to output.gpw (mode='')

iter: 175 14:57:58 -1581.135628  -0.72  -1.84
iter: 176 15:04:24 -1580.976471  -1.04  -1.94
iter: 177 15:10:51 -1581.106575c -0.90  -2.04
iter: 178 15:17:13 -1581.281053  -1.35  -2.15
iter: 179 15:23:36 -1581.886866  -1.04  -2.17
Writing to output.gpw (mode='')

iter: 180 15:30:00 -1582.106538  -0.75  -2.06
iter: 181 15:36:35 -1581.696747  -1.32  -2.00
iter: 182 15:43:12 -1581.317735  -1.73  -2.01
iter: 183 15:49:44 -1581.247817  -1.56  -2.10
iter: 184 15:56:08 -1581.293344c -1.37  -2.16
Writing to output.gpw (mode='')

iter: 185 16:02:29 -1581.346897c -1.48  -2.21
iter: 186 16:08:44 -1581.377974c -1.48  -2.23
iter: 187 16:15:10 -1581.423247c -1.67  -2.27
iter: 188 16:21:37 -1581.450150c -2.10  -2.29
iter: 189 16:28:00 -1581.453216c -2.18  -2.28
Writing to output.gpw (mode='')

iter: 190 16:34:27 -1581.498799c -2.13  -2.27
iter: 191 16:40:53 -1581.487230c -1.99  -2.23
iter: 192 16:47:00 -1581.442239c -1.66  -2.27
iter: 193 16:53:27 -1581.511883c -1.53  -2.33
iter: 194 16:59:38 -1581.484604c -1.77  -2.31
Writing to output.gpw (mode='')

iter: 195 17:05:57 -1581.460580c -2.50  -2.31
iter: 196 17:12:17 -1581.490344c -2.54  -2.31
iter: 197 17:18:36 -1581.469181c -2.19  -2.31
iter: 198 17:24:43 -1581.499531c -2.31  -2.29
iter: 199 17:30:54 -1581.500669c -2.60  -2.28
Writing to output.gpw (mode='')

iter: 200 17:37:04 -1581.519570c -2.32  -2.28
iter: 201 17:43:20 -1581.539223c -2.30  -2.27
iter: 202 17:49:31 -1581.574310c -2.09  -2.26
iter: 203 17:55:55 -1581.578942c -2.25  -2.22
iter: 204 18:02:15 -1583.028185  -0.76  -2.22
Writing to output.gpw (mode='')

iter: 205 18:08:42 -1583.474670  -0.93  -1.78
iter: 206 18:14:52 -1581.864615  -1.15  -1.74
iter: 207 18:21:06 -1583.298259  -1.27  -1.79
iter: 208 18:27:21 -1582.853443  -1.20  -1.72
iter: 209 18:33:41 -1581.783007  -1.33  -1.71
Writing to output.gpw (mode='')

iter: 210 18:40:00 -1589.311127  -0.18  -1.79
iter: 211 18:46:19 -1584.058990  -0.17  -1.56
iter: 212 18:52:29 -1580.105928  -0.57  -1.59
iter: 213 18:58:47 -1581.373888  -0.62  -1.87
iter: 214 19:04:50 -1581.957148  -0.81  -1.94
Writing to output.gpw (mode='')

iter: 215 19:11:10 -1582.969192  -0.31  -2.00
iter: 216 19:17:17 -1585.302255  -0.46  -1.89
iter: 217 19:23:21 -1586.557207  -0.01  -1.70
iter: 218 19:29:34 -1582.868389  -0.59  -1.62
iter: 219 19:35:46 -1581.785823  -0.78  -1.66
Writing to output.gpw (mode='')

iter: 220 19:42:14 -1580.573870  -0.64  -1.71
iter: 221 19:48:37 -1581.929780  -0.88  -1.90
iter: 222 19:54:53 -1589.462495  -0.10  -1.87
iter: 223 20:01:06 -1584.913130  -0.14  -1.50
iter: 224 20:07:14 -1584.130419  -0.63  -1.52
Writing to output.gpw (mode='')

iter: 225 20:13:24 -1584.827981  -0.64  -1.53
iter: 226 20:19:45 -1581.020488  -0.87  -1.52
iter: 227 20:25:53 -1581.855437  -0.12  -1.64
iter: 228 20:32:01 -1582.045502  -0.29  -1.91
iter: 229 20:38:17 -1582.713910  -0.73  -2.00
Writing to output.gpw (mode='')

iter: 230 20:44:34 -1583.097004  -0.49  -2.01
iter: 231 20:50:59 -1583.302720  -0.92  -1.93
iter: 232 20:57:13 -1583.011713  -0.87  -1.85
iter: 233 21:03:30 -1582.089872  -1.13  -1.81
iter: 234 21:09:49 -1583.029328  -0.93  -1.90
Writing to output.gpw (mode='')

iter: 235 21:16:01 -1583.186665  -1.08  -1.83
iter: 236 21:22:30 -1583.354514  -0.65  -1.78
iter: 237 21:28:43 -1596.020288  -0.09  -1.75
iter: 238 21:34:53 -1585.309457  -0.37  -1.37
iter: 239 21:41:06 -1585.034626  -1.03  -1.40
Writing to output.gpw (mode='')

iter: 240 21:47:20 -1594.016866  -0.53  -1.42
iter: 241 21:53:52 -1587.755159  -0.37  -1.34
iter: 242 22:00:20 -1582.177581  -0.52  -1.34
iter: 243 22:06:32 -1577.505031  +0.28  -1.43
iter: 244 22:13:07 -1583.450729  +0.63  -1.73
Writing to output.gpw (mode='')

iter: 245 22:19:23 -1582.870513  +0.18  -1.78
iter: 246 22:25:47 -1583.384633  -0.27  -1.88
iter: 247 22:31:52 -1583.268660  -0.33  -1.94
iter: 248 22:38:12 -1582.410108  -1.12  -1.89
iter: 249 22:44:28 -1586.948858  -0.70  -1.88
Writing to output.gpw (mode='')

iter: 250 22:50:50 -1582.006822  -0.89  -1.56
iter: 251 22:57:07 -1587.188408  -0.94  -1.62
iter: 252 23:03:44 -1589.271055  -0.60  -1.50
iter: 253 23:10:07 -1585.550008  -0.93  -1.44
iter: 254 23:16:38 -1580.169783  -0.76  -1.45
Writing to output.gpw (mode='')

iter: 255 23:23:14 -1580.261327  -0.47  -1.67
iter: 256 23:29:42 -1586.378616  -0.71  -1.73
iter: 257 23:36:00 -1578.948210  -0.23  -1.59
iter: 258 23:42:15 -1581.411351  +0.05  -1.80
iter: 259 23:48:39 -1583.150409  +0.23  -1.89
Writing to output.gpw (mode='')

iter: 260 23:55:05 -1581.460498  -0.61  -1.85
iter: 261 00:01:36 -1582.077574  -0.93  -1.98
iter: 262 00:08:11 -1582.498457  -0.63  -2.05
iter: 263 00:14:19 -1586.336428  -0.54  -2.00
iter: 264 00:20:34 -1584.860856  -0.53  -1.63
Writing to output.gpw (mode='')

iter: 265 00:27:09 -1581.721149  -0.31  -1.60
iter: 266 00:33:23 -1581.814525  -0.89  -2.07
iter: 267 00:39:47 -1582.691280  -1.13  -2.17
iter: 268 00:46:16 -1583.195587  -0.58  -2.00
iter: 269 00:52:41 -1586.302571  -0.73  -1.91
Writing to output.gpw (mode='')

iter: 270 00:59:23 -1587.015382  -0.00  -1.65
iter: 271 01:05:53 -1582.052823  -1.10  -1.58
iter: 272 01:12:11 -1582.988751  -1.47  -1.65
iter: 273 01:18:48 -1583.487229  -1.80  -1.65
iter: 274 01:24:54 -1584.481854  -1.60  -1.63
Writing to output.gpw (mode='')

iter: 275 01:31:23 -1581.307679  -1.01  -1.59
iter: 276 01:37:37 -1583.263670  -1.51  -1.68
iter: 277 01:43:56 -1581.560209  -0.84  -1.65
iter: 278 01:50:02 -1581.228396  -0.61  -1.90
iter: 279 01:56:21 -1581.739633  -0.33  -2.06
Writing to output.gpw (mode='')

iter: 280 02:02:43 -1582.178189  -0.97  -2.08
iter: 281 02:09:00 -1586.431177  -0.60  -2.07
iter: 282 02:15:15 -1587.700627  -0.17  -1.62
iter: 283 02:21:34 -1586.335633  -0.60  -1.55
iter: 284 02:27:57 -1579.706377  -0.49  -1.52
Writing to output.gpw (mode='')

iter: 285 02:34:23 -1581.050658  +0.04  -1.99
iter: 286 02:40:26 -1582.089279  -0.59  -2.07
iter: 287 02:46:28 -1582.870103  -0.16  -2.08
iter: 288 02:52:34 -1581.667300  -0.85  -2.00
iter: 289 02:58:50 -1582.031127  -0.91  -2.29
Writing to output.gpw (mode='')

iter: 290 03:04:59 -1582.119977  -0.89  -2.35
iter: 291 03:11:07 -1582.046901c -1.22  -2.30
iter: 292 03:17:16 -1582.163961c -0.89  -2.40
iter: 293 03:23:25 -1582.111693c -1.55  -2.33
iter: 294 03:29:30 -1582.118503c -1.76  -2.30
Writing to output.gpw (mode='')

iter: 295 03:35:53 -1582.075026c -1.92  -2.27
iter: 296 03:42:01 -1582.377121  -1.75  -2.26
iter: 297 03:48:19 -1581.982456  -1.74  -2.09
iter: 298 03:54:35 -1581.864240  -2.04  -2.15
iter: 299 04:00:59 -1582.151722  -1.81  -2.29
Writing to output.gpw (mode='')

iter: 300 04:07:20 -1582.273462  -2.03  -2.21
iter: 301 04:13:49 -1582.144141c -2.02  -2.13
iter: 302 04:19:54 -1581.998357  -1.32  -2.12
iter: 303 04:26:06 -1582.109669c -1.30  -2.39
iter: 304 04:32:30 -1582.019774c -1.70  -2.34
Writing to output.gpw (mode='')

iter: 305 04:39:12 -1582.147434c -1.60  -2.34
iter: 306 04:45:14 -1581.996590c -2.15  -2.32
iter: 307 04:51:53 -1581.951927  -2.53  -2.36
iter: 308 04:58:21 -1581.960900c -1.85  -2.45
iter: 309 05:04:47 -1582.035441c -1.98  -2.47
Writing to output.gpw (mode='')

iter: 310 05:10:53 -1582.195902  -1.11  -2.43
iter: 311 05:17:01 -1582.069204c -1.80  -2.31
iter: 312 05:23:24 -1581.963874  -1.85  -2.32
iter: 313 05:29:49 -1581.982276c -1.81  -2.53
iter: 314 05:36:17 -1582.114299c -1.88  -2.54
Writing to output.gpw (mode='')

iter: 315 05:42:43 -1582.166822  -1.41  -2.38
iter: 316 05:49:00 -1582.430417  -1.73  -2.31
iter: 317 05:55:35 -1582.499075  -1.09  -2.13
iter: 318 06:02:09 -1581.985382  -2.06  -2.06
iter: 319 06:08:22 -1582.029404  -2.54  -2.13
Writing to output.gpw (mode='')

iter: 320 06:14:36 -1581.922273c -1.98  -2.14
iter: 321 06:20:45 -1581.969508c -1.90  -2.40
iter: 322 06:27:12 -1582.960687  -1.25  -2.39
iter: 323 06:33:36 -1582.218796  -1.50  -1.93
iter: 324 06:39:49 -1582.075958  -2.15  -1.96
Writing to output.gpw (mode='')

iter: 325 06:46:01 -1581.788051  -1.68  -2.00
iter: 326 06:52:34 -1581.688366  -1.16  -2.09
iter: 327 06:58:51 -1582.094286  -0.48  -2.49
iter: 328 07:05:16 -1582.140898  -0.94  -2.44
iter: 329 07:11:25 -1581.941427  -1.69  -2.37
Writing to output.gpw (mode='')

iter: 330 07:17:58 -1581.957831  -2.23  -2.53
iter: 331 07:24:28 -1581.974414c -2.23  -2.57
iter: 332 07:30:44 -1582.004446c -1.82  -2.60
iter: 333 07:36:48 -1581.967627c -2.48  -2.58
iter: 334 07:42:55 -1582.231513  -1.72  -2.62
Writing to output.gpw (mode='')

iter: 335 07:49:00 -1581.927505  -1.82  -2.19
iter: 336 07:55:12 -1581.935739  -2.01  -2.28
iter: 337 08:01:26 -1581.914523c -2.13  -2.33
iter: 338 08:07:38 -1581.952776c -2.05  -2.41
iter: 339 08:14:09 -1581.958686c -2.13  -2.47
Writing to output.gpw (mode='')

iter: 340 08:20:37 -1581.979464c -1.52  -2.58
iter: 341 08:26:43 -1582.004136c -1.90  -2.60
iter: 342 08:32:52 -1581.999950c -1.81  -2.58
iter: 343 08:39:15 -1581.976407c -2.44  -2.57
iter: 344 08:45:34 -1582.004328c -2.24  -2.61
Writing to output.gpw (mode='')

iter: 345 08:51:50 -1581.985071c -2.52  -2.59
iter: 346 08:58:12 -1582.059488c -2.43  -2.59
iter: 347 09:04:20 -1582.038677c -2.16  -2.41
iter: 348 09:10:35 -1581.998694c -2.39  -2.39
iter: 349 09:16:44 -1581.949971c -2.32  -2.42
Writing to output.gpw (mode='')

iter: 350 09:22:53 -1582.106891c -1.68  -2.51
iter: 351 09:28:58 -1582.276757  -1.14  -2.40
iter: 352 09:35:15 -1582.318984  -1.42  -2.26
iter: 353 09:41:47 -1582.404680c -1.50  -2.18
iter: 354 09:48:14 -1582.077460  -2.04  -2.11
Writing to output.gpw (mode='')

iter: 355 09:54:20 -1582.189355  -2.20  -2.14
iter: 356 10:00:28 -1582.343393  -1.65  -2.09
iter: 357 10:06:40 -1582.139167  -1.99  -2.05
iter: 358 10:13:03 -1584.612096  -0.47  -2.06
iter: 359 10:19:21 -1582.513529  -0.92  -1.70
Writing to output.gpw (mode='')

iter: 360 10:25:41 -1581.162793  -1.15  -1.74
iter: 361 10:31:44 -1581.376049  -0.65  -1.91
iter: 362 10:37:55 -1581.589586  -1.33  -1.99
iter: 363 10:44:08 -1582.788172  -1.27  -2.05
iter: 364 10:50:18 -1581.610908  -1.25  -1.91
Writing to output.gpw (mode='')

iter: 365 10:56:35 -1582.080559  -0.70  -2.05
iter: 366 11:02:52 -1582.438037  -0.44  -2.37
iter: 367 11:08:59 -1582.103042  -1.26  -2.21
iter: 368 11:15:06 -1581.942681  -1.98  -2.23
iter: 369 11:21:19 -1581.975384c -1.85  -2.39
Writing to output.gpw (mode='')

iter: 370 11:27:19 -1582.168206  -2.03  -2.42
iter: 371 11:33:39 -1582.053256  -1.95  -2.24
iter: 372 11:40:00 -1581.983644  -1.78  -2.25
iter: 373 11:46:23 -1581.979230c -1.32  -2.43
iter: 374 11:52:42 -1581.977230c -1.53  -2.56
Writing to output.gpw (mode='')

iter: 375 11:59:09 -1582.094704c -1.66  -2.64
iter: 376 12:05:15 -1582.105637c -1.56  -2.47
iter: 377 12:11:32 -1582.047501c -1.99  -2.40
iter: 378 12:17:36 -1582.647500  -1.64  -2.39
iter: 379 12:23:48 -1582.933322  -1.10  -2.00
Writing to output.gpw (mode='')

iter: 380 12:29:57 -1581.955569  -1.64  -1.93
iter: 381 12:35:59 -1583.080791  -1.31  -2.01
iter: 382 12:42:12 -1583.186019  -1.20  -1.85
iter: 383 12:48:39 -1582.275936  -1.72  -1.81
iter: 384 12:54:50 -1584.988482  -0.49  -1.84
Writing to output.gpw (mode='')

iter: 385 13:01:07 -1581.882232  -0.64  -1.65
iter: 386 13:07:30 -1583.658491  -0.82  -1.73
iter: 387 13:13:50 -1582.058190  -0.52  -1.68
iter: 388 13:20:02 -1580.893059  -0.89  -1.73
iter: 389 13:26:18 -1584.749870  -0.10  -1.99
Writing to output.gpw (mode='')

iter: 390 13:32:39 -1584.922153  +0.02  -1.83
iter: 391 13:38:58 -1582.754720  -0.53  -1.76
iter: 392 13:45:01 -1581.678073  -0.55  -1.81
iter: 393 13:51:30 -1582.021914  -1.24  -1.97
iter: 394 13:57:42 -1583.876137  -0.98  -1.99
Writing to output.gpw (mode='')

iter: 395 14:04:19 -1582.673685  -0.90  -1.76
iter: 396 14:10:42 -1584.111625  -0.42  -1.77
iter: 397 14:17:05 -1582.713052  -0.77  -1.79
iter: 398 14:23:15 -1582.150447  -1.39  -1.80
iter: 399 14:29:29 -1581.954494  -1.01  -1.85
Writing to output.gpw (mode='')

iter: 400 14:35:47 -1582.031723  -1.05  -1.90
iter: 401 14:42:04 -1600.245340  +0.18  -1.92
iter: 402 14:48:23 -1581.348228  -0.07  -1.30
iter: 403 14:55:01 -1577.931104  -0.46  -1.38
iter: 404 15:01:08 -1578.701267  -0.09  -1.49
Writing to output.gpw (mode='')

iter: 405 15:07:36 -1578.456320  -0.38  -1.55
iter: 406 15:13:56 -1579.974856  +0.18  -1.75
iter: 407 15:20:24 -1581.771967  +0.06  -2.19
iter: 408 15:26:42 -1581.663310  -0.83  -2.21
iter: 409 15:33:15 -1581.826720c -1.23  -2.33
Writing to output.gpw (mode='')

iter: 410 15:39:39 -1581.946965  -1.19  -2.40
iter: 411 15:46:21 -1582.388577  -1.24  -2.44
iter: 412 15:52:47 -1582.301407  -1.22  -2.18
iter: 413 15:59:14 -1582.377314c -0.97  -2.11
iter: 414 16:05:41 -1581.746515  -0.86  -2.19
Writing to output.gpw (mode='')

iter: 415 16:12:11 -1581.873626  -1.18  -2.52
iter: 416 16:18:22 -1582.022914  -1.43  -2.70
iter: 417 16:24:39 -1581.989730c -2.16  -2.58
iter: 418 16:31:09 -1581.970186c -2.15  -2.57
iter: 419 16:37:23 -1581.983585c -2.39  -2.64
Writing to output.gpw (mode='')

iter: 420 16:43:33 -1582.022282c -2.69  -2.62
iter: 421 16:49:49 -1581.947639c -2.13  -2.50
iter: 422 16:56:10 -1581.975891c -2.07  -2.63
iter: 423 17:02:23 -1582.203718  -1.33  -2.75
iter: 424 17:08:48 -1581.974413  -2.04  -2.38
Writing to output.gpw (mode='')

iter: 425 17:15:05 -1582.009575  -2.75  -2.50
iter: 426 17:21:46 -1582.162544  -2.04  -2.46
iter: 427 17:28:06 -1582.097900c -1.94  -2.26
iter: 428 17:34:41 -1581.965991  -1.78  -2.25
iter: 429 17:40:55 -1581.966736c -2.09  -2.64
Writing to output.gpw (mode='')

iter: 430 17:47:15 -1582.065632c -2.19  -2.69
iter: 431 17:53:26 -1582.141406c -1.65  -2.43
iter: 432 17:59:30 -1582.299836  -1.61  -2.32
iter: 433 18:05:40 -1581.937791  -1.45  -2.19
iter: 434 18:12:03 -1581.938682  -1.59  -2.32
Writing to output.gpw (mode='')

iter: 435 18:18:21 -1581.992640c -1.29  -2.71
iter: 436 18:24:35 -1582.016342c -1.93  -2.72
iter: 437 18:30:57 -1581.974964c -2.28  -2.68
iter: 438 18:37:16 -1582.624826  -1.22  -2.75
iter: 439 18:43:49 -1582.631803  -1.37  -1.97
Writing to output.gpw (mode='')

iter: 440 18:50:12 -1582.718502c -1.63  -1.95
iter: 441 18:56:23 -1582.419140  -1.70  -1.92
iter: 442 19:02:38 -1582.422230  -2.27  -1.92
iter: 443 19:08:59 -1583.460229  -0.62  -1.90
iter: 444 19:15:35 -1582.011824  -0.97  -1.92
Writing to output.gpw (mode='')

iter: 445 19:21:43 -1581.624099  -1.36  -2.01
iter: 446 19:27:48 -1581.799844  -0.74  -2.40
iter: 447 19:34:07 -1581.900270  -1.60  -2.60
iter: 448 19:40:17 -1582.009309  -1.10  -2.81
iter: 449 19:46:42 -1581.990628c -1.78  -2.72
Writing to output.gpw (mode='')

iter: 450 19:52:54 -1582.068010c -2.14  -2.71
iter: 451 19:59:17 -1582.066712c -1.90  -2.46
iter: 452 20:05:33 -1582.085252c -2.29  -2.40
iter: 453 20:12:01 -1582.083642c -2.18  -2.35
iter: 454 20:18:01 -1581.954757c -1.96  -2.31
Writing to output.gpw (mode='')

iter: 455 20:24:11 -1581.960311c -2.17  -2.70
iter: 456 20:30:24 -1581.966753c -2.46  -2.75
iter: 457 20:36:40 -1582.150440  -1.75  -2.80
iter: 458 20:42:53 -1582.184625  -1.34  -2.39
iter: 459 20:49:03 -1582.200219c -1.94  -2.32
Writing to output.gpw (mode='')

iter: 460 20:55:16 -1582.009283  -2.16  -2.24
iter: 461 21:01:29 -1582.142315  -2.48  -2.29
iter: 462 21:07:42 -1581.979462c -2.25  -2.21
iter: 463 21:14:09 -1581.997090c -2.51  -2.27
iter: 464 21:20:02 -1586.247571  -0.39  -2.28
Writing to output.gpw (mode='')

iter: 465 21:26:20 -1581.934951  -0.74  -1.56
iter: 466 21:32:31 -1581.509742  -0.97  -1.62
iter: 467 21:38:41 -1581.500478  -0.99  -1.67
iter: 468 21:44:57 -1580.989761  -1.12  -1.71
iter: 469 21:51:11 -1580.582492  -0.52  -1.80
Writing to output.gpw (mode='')

iter: 470 21:57:32 -1581.815809  +0.12  -2.31
iter: 471 22:04:00 -1581.850650  -0.93  -2.43
iter: 472 22:10:18 -1582.054832  -1.52  -2.68
iter: 473 22:16:42 -1581.931792  -1.23  -2.49
iter: 474 22:23:02 -1582.052025c -1.34  -2.75
Writing to output.gpw (mode='')

iter: 475 22:29:28 -1582.176450  -1.05  -2.58
iter: 476 22:35:33 -1582.226985c -1.33  -2.41
iter: 477 22:41:53 -1582.245602c -1.40  -2.29
iter: 478 22:48:17 -1582.549741  -1.44  -2.21
iter: 479 22:54:30 -1582.699130  -1.12  -2.07
Writing to output.gpw (mode='')

iter: 480 23:00:35 -1583.187443  -1.22  -2.00
iter: 481 23:06:52 -1582.253785  -1.56  -1.89
iter: 482 23:13:07 -1581.834387  -2.04  -1.93
iter: 483 23:19:21 -1581.961026  -1.55  -2.05
iter: 484 23:25:43 -1581.793966c -1.80  -2.08
Writing to output.gpw (mode='')

iter: 485 23:31:51 -1581.761605  -1.14  -2.25
iter: 486 23:37:51 -1582.016624  -1.01  -2.52
iter: 487 23:43:54 -1582.175019  -0.76  -2.66
iter: 488 23:50:02 -1582.155511c -1.40  -2.44
iter: 489 23:56:16 -1582.139190c -1.63  -2.38
Writing to output.gpw (mode='')

iter: 490 00:02:34 -1581.985047c -1.91  -2.32
iter: 491 00:08:57 -1582.553719  -1.53  -2.40
iter: 492 00:15:11 -1582.115812  -1.99  -2.08
iter: 493 00:21:26 -1581.974479  -2.70  -2.12
iter: 494 00:27:41 -1581.907809  -1.97  -2.19
Writing to output.gpw (mode='')

iter: 495 00:34:03 -1581.963547c -2.01  -2.25
iter: 496 00:40:17 -1582.303150  -1.31  -2.27
iter: 497 00:46:35 -1582.080749  -1.46  -2.24
iter: 498 00:52:51 -1581.914448  -1.76  -2.26
iter: 499 00:59:12 -1581.962424c -1.77  -2.60
Writing to output.gpw (mode='')

iter: 500 01:05:35 -1581.963613c -2.54  -2.67
iter: 501 01:11:56 -1581.983672c -2.05  -2.78
iter: 502 01:18:28 -1582.035907c -1.64  -2.84
iter: 503 01:24:54 -1582.094728c -1.67  -2.68
iter: 504 01:31:18 -1581.977347c -2.00  -2.52
Writing to output.gpw (mode='')

iter: 505 01:37:31 -1581.966662c -2.22  -2.63
iter: 506 01:43:51 -1581.985953c -2.75  -2.95
iter: 507 01:50:31 -1582.016320c -2.86  -2.91
iter: 508 01:56:58 -1582.025448c -2.24  -2.64
iter: 509 02:03:19 -1581.993996c -2.90  -2.59
Writing to output.gpw (mode='')

iter: 510 02:09:52 -1582.005708c -2.91  -2.61
iter: 511 02:16:12 -1581.981345c -2.93  -2.58
iter: 512 02:22:37 -1582.036046c -2.12  -2.62
iter: 513 02:28:49 -1582.010460c -2.11  -2.59
iter: 514 02:35:18 -1581.969793c -2.20  -2.58
Writing to output.gpw (mode='')

iter: 515 02:41:33 -1582.006267c -1.67  -3.11
iter: 516 02:48:17 -1582.012282c -1.96  -2.90
iter: 517 02:54:43 -1582.013337c -2.39  -2.76
iter: 518 03:01:05 -1582.003042c -2.60  -2.69
iter: 519 03:07:21 -1582.010078c -3.06  -2.67
Writing to output.gpw (mode='')

iter: 520 03:13:43 -1582.029744c -2.56  -2.62
iter: 521 03:19:55 -1581.972539c -2.56  -2.55
iter: 522 03:26:19 -1582.010678c -2.69  -2.64
iter: 523 03:32:31 -1582.071544c -2.65  -2.60
iter: 524 03:38:42 -1581.956969c -2.01  -2.42
Writing to output.gpw (mode='')

iter: 525 03:44:56 -1582.040328c -1.76  -2.52
iter: 526 03:51:20 -1581.969284c -2.08  -2.64
iter: 527 03:57:49 -1581.971364c -2.83  -2.91
iter: 528 04:04:14 -1581.978007c -2.30  -3.06
iter: 529 04:10:50 -1581.985509c -2.48  -3.14
Writing to output.gpw (mode='')

iter: 530 04:17:28 -1581.984785c -2.54  -3.08
iter: 531 04:23:48 -1581.983916c -2.80  -3.04
iter: 532 04:30:35 -1581.984190c -2.83  -3.09
iter: 533 04:36:59 -1581.983797c -3.54  -3.05
iter: 534 04:43:23 -1581.990549c -3.11  -3.03
Writing to output.gpw (mode='')

iter: 535 04:49:57 -1581.990294c -2.87  -2.89
iter: 536 04:56:09 -1581.992814c -3.30  -2.86
iter: 537 05:02:33 -1582.093611c -2.25  -2.80
iter: 538 05:08:57 -1582.024691c -2.28  -2.40
iter: 539 05:15:27 -1582.244779  -2.12  -2.42
Writing to output.gpw (mode='')

iter: 540 05:21:48 -1581.861301  -1.68  -2.19
iter: 541 05:28:19 -1581.935910  -2.02  -2.33
iter: 542 05:34:39 -1581.990060c -2.27  -2.38
iter: 543 05:41:27 -1582.136630  -1.41  -2.37
iter: 544 05:47:58 -1582.109310c -1.44  -2.39
Writing to output.gpw (mode='')

iter: 545 05:54:31 -1581.976269c -1.94  -2.37
iter: 546 06:00:49 -1581.948900c -2.18  -2.48
iter: 547 06:07:25 -1581.955966c -2.20  -2.59
iter: 548 06:14:03 -1582.050624c -1.90  -2.66
iter: 549 06:20:21 -1582.094207c -1.38  -2.61
Writing to output.gpw (mode='')

iter: 550 06:26:34 -1582.084991c -1.75  -2.47
iter: 551 06:33:00 -1581.977021c -2.05  -2.41
iter: 552 06:39:07 -1581.953364c -2.24  -2.51
iter: 553 06:45:27 -1581.958830c -2.07  -2.65
iter: 554 06:51:47 -1582.001192c -1.57  -2.99
Writing to output.gpw (mode='')

iter: 555 06:58:15 -1582.010282c -1.74  -2.90
iter: 556 07:04:56 -1581.987228c -2.34  -2.82
iter: 557 07:11:12 -1581.981346c -3.09  -2.88
iter: 558 07:17:22 -1581.982344c -3.53  -2.91
iter: 559 07:23:40 -1581.992294c -3.28  -2.92
Writing to output.gpw (mode='')

iter: 560 07:29:55 -1582.015974c -2.21  -2.82
iter: 561 07:36:17 -1582.003253c -2.38  -2.70
iter: 562 07:42:25 -1582.093912c -2.19  -2.68
iter: 563 07:48:53 -1582.112422c -1.92  -2.39
iter: 564 07:55:12 -1582.077992c -2.29  -2.34
Writing to output.gpw (mode='')

iter: 565 08:01:31 -1583.578245  -1.18  -2.32
iter: 566 08:07:58 -1583.106522  -1.40  -1.73
iter: 567 08:14:11 -1582.289120  -1.81  -1.73
iter: 568 08:20:39 -1581.802592  -1.56  -1.77
iter: 569 08:26:55 -1581.159077  -1.22  -1.82
Writing to output.gpw (mode='')

iter: 570 08:33:34 -1581.097567  -0.48  -1.99
iter: 571 08:39:37 -1581.676823  -0.41  -2.37
iter: 572 08:45:56 -1582.003970  -0.63  -2.74
iter: 573 08:51:56 -1581.948089  -1.56  -2.64
iter: 574 08:58:10 -1581.949810c -2.28  -2.93
Writing to output.gpw (mode='')

iter: 575 09:04:19 -1581.961574c -2.24  -3.02
iter: 576 09:10:33 -1581.973580c -2.25  -3.03
iter: 577 09:16:45 -1581.983655c -2.42  -2.98
iter: 578 09:22:57 -1582.012077c -1.98  -2.87
iter: 579 09:29:16 -1581.998258c -1.73  -2.70
Writing to output.gpw (mode='')

iter: 580 09:35:47 -1582.001504c -1.87  -2.94
iter: 581 09:42:00 -1581.991240c -2.55  -2.83
iter: 582 09:48:17 -1581.983767c -3.18  -2.81
iter: 583 09:54:19 -1581.973795c -3.36  -2.82
iter: 584 10:00:38 -1581.975808c -2.97  -2.96
Writing to output.gpw (mode='')

iter: 585 10:06:54 -1582.041649c -2.66  -3.01
iter: 586 10:13:28 -1581.972477c -2.49  -2.50
iter: 587 10:19:42 -1582.076732c -2.53  -2.58
iter: 588 10:25:51 -1582.105599c -2.06  -2.40
iter: 589 10:32:14 -1581.993824c -2.77  -2.34
Writing to output.gpw (mode='')

iter: 590 10:38:35 -1581.954130c -2.88  -2.39
iter: 591 10:44:31 -1581.948497c -1.87  -2.60
iter: 592 10:50:47 -1581.972590c -2.27  -3.07
iter: 593 10:57:04 -1582.348655  -1.58  -3.10
iter: 594 11:03:25 -1582.483824  -1.58  -2.10
Writing to output.gpw (mode='')

iter: 595 11:09:55 -1582.613810  -1.54  -2.04
iter: 596 11:16:17 -1582.535461c -1.56  -1.99
iter: 597 11:22:43 -1581.733526  -1.70  -1.96
iter: 598 11:29:01 -1581.827430  -1.43  -2.18
iter: 599 11:35:30 -1581.809941c -1.78  -2.24
Writing to output.gpw (mode='')

iter: 600 11:41:37 -1581.844709c -1.21  -2.41
iter: 601 11:47:59 -1581.922171c -1.41  -2.71
iter: 602 11:54:18 -1582.017814c -1.39  -2.92
iter: 603 12:00:39 -1582.097260c -1.34  -2.76
iter: 604 12:07:09 -1582.155001c -1.45  -2.56
Writing to output.gpw (mode='')

iter: 605 12:13:29 -1582.171058c -1.55  -2.42
iter: 606 12:19:54 -1582.080181c -1.95  -2.33
iter: 607 12:26:31 -1582.288070  -2.12  -2.33
iter: 608 12:32:54 -1581.918635  -1.76  -2.15
iter: 609 12:39:39 -1581.973804  -1.57  -2.27
Writing to output.gpw (mode='')

iter: 610 12:45:52 -1582.028987c -1.26  -2.90
iter: 611 12:52:17 -1582.116810c -1.70  -2.71
iter: 612 12:58:23 -1582.204388c -1.44  -2.45
iter: 613 13:04:40 -1582.163017c -1.75  -2.32
iter: 614 13:11:00 -1582.286995c -1.93  -2.27
Writing to output.gpw (mode='')

iter: 615 13:17:14 -1582.074910  -2.24  -2.16
iter: 616 13:23:26 -1582.165385  -2.67  -2.19
iter: 617 13:29:57 -1581.853828  -1.82  -2.15
iter: 618 13:36:18 -1581.930982  -1.26  -2.36
iter: 619 13:42:57 -1582.012007c -1.09  -2.98
Writing to output.gpw (mode='')

iter: 620 13:49:18 -1581.991460c -2.09  -2.82
iter: 621 13:55:44 -1581.974071c -2.37  -2.83
iter: 622 14:02:03 -1582.006221c -2.08  -3.31
iter: 623 14:08:23 -1582.021910c -1.83  -2.89
iter: 624 14:14:38 -1582.013784c -2.35  -2.74
Writing to output.gpw (mode='')

iter: 625 14:21:02 -1582.032142c -2.62  -2.67
iter: 626 14:27:32 -1582.046816c -2.29  -2.55
iter: 627 14:33:49 -1582.105509c -2.41  -2.49
iter: 628 14:40:04 -1582.080434c -2.08  -2.36
iter: 629 14:46:25 -1582.013210c -3.04  -2.33
Writing to output.gpw (mode='')

iter: 630 14:52:55 -1582.057759c -3.21  -2.36
iter: 631 14:59:07 -1582.184114c -2.39  -2.32
iter: 632 15:05:31 -1582.511171  -1.63  -2.20
iter: 633 15:12:00 -1582.069924  -2.15  -2.07
iter: 634 15:18:50 -1584.100901  -0.50  -2.11
Writing to output.gpw (mode='')

iter: 635 15:25:09 -1582.298383  -0.91  -1.71
iter: 636 15:31:43 -1580.995384  -1.00  -1.76
iter: 637 15:38:11 -1581.476511  -0.52  -2.10
iter: 638 15:44:31 -1581.764631  -1.47  -2.22
iter: 639 15:50:39 -1581.815795  -1.62  -2.28
Writing to output.gpw (mode='')

iter: 640 15:56:50 -1581.814977c -1.55  -2.35
iter: 641 16:03:03 -1581.971827c -2.01  -2.59
iter: 642 16:09:23 -1582.204920  -2.05  -2.50
iter: 643 16:15:48 -1582.365537  -1.50  -2.20
iter: 644 16:22:14 -1582.480458  -1.62  -2.12
Writing to output.gpw (mode='')

iter: 645 16:28:43 -1582.295182  -1.77  -2.05
iter: 646 16:35:07 -1581.862344  -2.16  -2.03
iter: 647 16:41:31 -1582.180415  -2.02  -2.20
iter: 648 16:48:03 -1582.237313  -2.37  -2.14
iter: 649 16:54:22 -1582.286685c -1.97  -2.10
Writing to output.gpw (mode='')

iter: 650 17:01:07 -1581.945015  -1.44  -2.07
iter: 651 17:07:27 -1582.014239  -1.15  -2.69
iter: 652 17:13:46 -1581.963021c -1.91  -2.65
iter: 653 17:20:12 -1582.010746c -2.03  -2.96
iter: 654 17:26:39 -1581.982140c -2.16  -2.74
Writing to output.gpw (mode='')

iter: 655 17:33:00 -1582.017922c -2.14  -2.78
iter: 656 17:39:36 -1581.997314c -2.26  -2.75
iter: 657 17:46:03 -1581.984638c -2.90  -2.74
iter: 658 17:52:19 -1581.984245c -2.70  -2.79
iter: 659 17:58:36 -1582.206512  -2.01  -2.80
Writing to output.gpw (mode='')

iter: 660 18:04:54 -1582.798490  -1.24  -2.25
iter: 661 18:11:19 -1582.150260  -1.91  -2.02
iter: 662 18:17:42 -1582.926528  -1.67  -2.07
iter: 663 18:24:05 -1582.274829  -1.88  -1.86
iter: 664 18:30:17 -1581.837639  -2.04  -1.88
Writing to output.gpw (mode='')

iter: 665 18:36:43 -1581.550647  -1.20  -2.02
iter: 666 18:42:52 -1581.897629  -1.58  -2.31
iter: 667 18:49:24 -1582.597778  -1.61  -2.32
iter: 668 18:55:34 -1582.324277  -1.89  -2.00
iter: 669 19:01:45 -1581.917304  -1.25  -1.99
Writing to output.gpw (mode='')

iter: 670 19:08:18 -1582.015496  -1.51  -2.60
iter: 671 19:14:54 -1582.022203c -1.58  -2.54
iter: 672 19:21:18 -1582.092701c -1.27  -2.68
iter: 673 19:27:46 -1581.989009c -1.90  -2.51
iter: 674 19:34:13 -1582.218234  -1.44  -2.57
Writing to output.gpw (mode='')

iter: 675 19:40:29 -1582.045365  -1.93  -2.31
iter: 676 19:46:44 -1582.318144  -2.04  -2.34
iter: 677 19:53:12 -1582.321538  -1.55  -2.12
iter: 678 19:59:27 -1582.166029c -2.38  -2.09
iter: 679 20:05:44 -1581.896493  -1.87  -2.09
Writing to output.gpw (mode='')

iter: 680 20:12:12 -1582.204265  -1.53  -2.50
iter: 681 20:18:31 -1582.330422  -1.57  -2.28
iter: 682 20:24:33 -1582.774442  -1.27  -2.18
iter: 683 20:30:49 -1584.169326  -0.80  -2.03
iter: 684 20:37:10 -1584.289912  -0.52  -1.82
Writing to output.gpw (mode='')

iter: 685 20:43:32 -1581.489743  -1.09  -1.75
iter: 686 20:49:40 -1581.880897  -1.47  -1.89
iter: 687 20:55:58 -1581.590520  -1.29  -1.91
iter: 688 21:02:02 -1581.899677  -0.58  -2.41
iter: 689 21:08:25 -1582.001491  -1.42  -2.62
Writing to output.gpw (mode='')

iter: 690 21:14:48 -1582.084931  -1.87  -2.60
iter: 691 21:21:10 -1581.988079c -1.25  -2.44
iter: 692 21:27:29 -1582.121802c -0.97  -2.73
iter: 693 21:33:35 -1582.122580c -1.38  -2.54
iter: 694 21:40:16 -1581.982540c -1.57  -2.44
Writing to output.gpw (mode='')

iter: 695 21:46:42 -1582.051330c -1.69  -2.63
iter: 696 21:53:14 -1583.643770  -1.17  -2.55
iter: 697 21:59:38 -1583.641253  -0.76  -1.84
iter: 698 22:06:17 -1582.053671  -0.74  -1.80
iter: 699 22:12:37 -1583.486286  -0.08  -2.46
Writing to output.gpw (mode='')

iter: 700 22:19:06 -1582.636866  -0.75  -2.04
iter: 701 22:25:17 -1581.772726  -1.09  -2.02
iter: 702 22:31:43 -1581.907478  -0.97  -2.59
iter: 703 22:38:10 -1581.965786  -1.78  -2.79
iter: 704 22:44:35 -1582.447363  -1.51  -2.84
Writing to output.gpw (mode='')

iter: 705 22:51:06 -1582.265856  -1.62  -2.12
iter: 706 22:57:46 -1581.975221  -2.26  -2.11
iter: 707 23:04:23 -1581.834590  -1.85  -2.19
iter: 708 23:10:57 -1581.953838c -1.02  -2.44
iter: 709 23:17:26 -1582.168700  -0.83  -2.84
Writing to output.gpw (mode='')

iter: 710 23:23:42 -1582.032013  -1.58  -2.52
iter: 711 23:30:10 -1581.992597c -1.93  -2.56
iter: 712 23:36:25 -1581.978604c -2.68  -2.95
iter: 713 23:42:49 -1582.348841  -1.53  -3.06
iter: 714 23:49:07 -1582.330248  -1.68  -2.09
Writing to output.gpw (mode='')

iter: 715 23:55:22 -1582.189513c -2.07  -2.08
iter: 716 00:01:49 -1582.321608c -2.20  -2.08
iter: 717 00:08:14 -1581.887269  -1.97  -2.04
iter: 718 00:14:29 -1584.925864  -0.61  -2.14
iter: 719 00:20:58 -1581.702398  -0.76  -1.74
Writing to output.gpw (mode='')

iter: 720 00:27:22 -1581.321122  -1.32  -1.85
iter: 721 00:33:44 -1581.518787  -0.63  -2.04
iter: 722 00:39:51 -1581.652347  -1.59  -2.14
iter: 723 00:46:08 -1581.956952  -0.64  -2.36
iter: 724 00:52:25 -1582.159097  -0.71  -2.71
Writing to output.gpw (mode='')

iter: 725 00:58:50 -1581.967768  -1.84  -2.47
iter: 726 01:05:16 -1581.955700  -2.53  -2.66
iter: 727 01:11:44 -1581.983312c -2.32  -2.91
iter: 728 01:18:17 -1582.185672  -1.98  -2.85
iter: 729 01:24:48 -1582.211000  -1.44  -2.28
Writing to output.gpw (mode='')

iter: 730 01:31:18 -1582.086057c -2.18  -2.23
iter: 731 01:37:40 -1582.266304  -2.18  -2.24
iter: 732 01:43:40 -1581.864239  -1.28  -2.14
iter: 733 01:50:05 -1581.997670  -0.93  -2.85
iter: 734 01:56:43 -1581.975286c -2.19  -2.82
Writing to output.gpw (mode='')

iter: 735 02:03:13 -1581.981360c -2.79  -2.89
iter: 736 02:09:30 -1582.767876  -1.41  -2.88
iter: 737 02:15:48 -1582.900459  -1.04  -1.98
iter: 738 02:22:08 -1582.891926c -1.45  -1.93
iter: 739 02:28:44 -1581.720345  -1.41  -1.89
Writing to output.gpw (mode='')

iter: 740 02:34:57 -1581.673116  -1.30  -2.03
iter: 741 02:41:17 -1581.649348c -1.29  -2.13
iter: 742 02:47:22 -1581.864677  -1.41  -2.29
iter: 743 02:53:30 -1581.877296  -1.90  -2.35
iter: 744 02:59:44 -1582.209497  -0.99  -2.58
Writing to output.gpw (mode='')

iter: 745 03:06:09 -1582.372010  -0.79  -2.46
iter: 746 03:12:47 -1582.282636c -1.26  -2.28
iter: 747 03:19:06 -1581.965667  -1.87  -2.22
iter: 748 03:25:52 -1582.246538  -2.05  -2.36
iter: 749 03:32:15 -1582.481184  -1.41  -2.20
Writing to output.gpw (mode='')

iter: 750 03:38:50 -1581.937923  -1.72  -2.09
iter: 751 03:45:12 -1582.249755  -1.23  -2.18
iter: 752 03:51:36 -1582.590954  -0.91  -2.32
iter: 753 03:57:50 -1582.173323  -1.48  -2.14
iter: 754 04:04:09 -1582.063665  -1.28  -2.16
Writing to output.gpw (mode='')

iter: 755 04:10:28 -1582.041726c -1.52  -2.62
iter: 756 04:16:53 -1582.009242c -2.29  -2.58
iter: 757 04:23:04 -1581.966338c -2.22  -2.60
iter: 758 04:29:30 -1581.980197c -2.09  -3.09
iter: 759 04:35:41 -1582.021854c -2.39  -3.12
Writing to output.gpw (mode='')

iter: 760 04:42:09 -1581.968575c -2.16  -2.70
iter: 761 04:48:27 -1582.140568c -1.97  -2.96
iter: 762 04:54:48 -1582.177178  -1.51  -2.40
iter: 763 05:00:57 -1582.188686c -2.02  -2.33
iter: 764 05:07:07 -1582.196305c -1.75  -2.26
Writing to output.gpw (mode='')

iter: 765 05:13:29 -1582.001353  -2.48  -2.22
iter: 766 05:19:48 -1582.024051  -2.86  -2.27
iter: 767 05:26:11 -1582.212581  -2.45  -2.28
iter: 768 05:32:27 -1582.130434  -2.31  -2.15
iter: 769 05:38:40 -1582.093575c -1.38  -2.15
Writing to output.gpw (mode='')

iter: 770 05:44:54 -1582.132829c -1.41  -2.42
iter: 771 05:51:11 -1582.105972c -1.69  -2.37
iter: 772 05:57:36 -1581.977787c -1.70  -2.34
iter: 773 06:03:44 -1582.003846c -1.49  -2.84
iter: 774 06:09:53 -1581.983710c -2.30  -2.78
Writing to output.gpw (mode='')

iter: 775 06:16:07 -1582.031137c -2.28  -2.84
iter: 776 06:22:22 -1581.994658c -2.42  -2.61
iter: 777 06:28:42 -1582.000880c -2.14  -2.64
iter: 778 06:34:49 -1582.014970c -1.93  -2.89
iter: 779 06:41:15 -1581.991186c -2.62  -2.78
Writing to output.gpw (mode='')

iter: 780 06:47:47 -1581.979495c -3.22  -2.80
iter: 781 06:54:02 -1581.997431c -2.87  -2.90
iter: 782 07:00:19 -1582.007659c -2.72  -2.79
iter: 783 07:06:42 -1582.007860c -2.61  -2.70
iter: 784 07:13:00 -1582.139611c -1.82  -2.66
Writing to output.gpw (mode='')

iter: 785 07:19:24 -1581.963479c -2.11  -2.37
iter: 786 07:25:37 -1581.953594  -2.42  -2.48
iter: 787 07:31:58 -1581.964530c -2.28  -2.58
iter: 788 07:38:17 -1581.975576c -2.88  -2.64
iter: 789 07:44:41 -1582.813690  -1.11  -2.67
Writing to output.gpw (mode='')

iter: 790 07:51:04 -1581.763076  -1.33  -1.91
iter: 791 07:57:33 -1581.632865  -1.41  -2.00
iter: 792 08:03:50 -1581.896303  -1.42  -2.14
iter: 793 08:10:16 -1581.956034  -2.40  -2.18
iter: 794 08:16:46 -1583.098203  -0.97  -2.20
Writing to output.gpw (mode='')

iter: 795 08:23:15 -1582.133356  -1.35  -1.92
iter: 796 08:29:32 -1581.798215  -1.05  -1.96
iter: 797 08:35:46 -1581.970908  -0.90  -2.87
iter: 798 08:42:04 -1581.960904c -2.13  -2.84
iter: 799 08:48:16 -1581.972999c -2.69  -2.93
Writing to output.gpw (mode='')

iter: 800 08:54:42 -1582.155934  -1.70  -2.92
iter: 801 09:01:05 -1582.169673  -1.30  -2.40
iter: 802 09:07:23 -1582.052701c -2.27  -2.32
iter: 803 09:13:41 -1581.965717  -2.71  -2.32
iter: 804 09:20:05 -1582.162506  -2.15  -2.43
Writing to output.gpw (mode='')

iter: 805 09:26:18 -1582.180504  -1.83  -2.25
iter: 806 09:32:39 -1582.108774c -2.30  -2.21
iter: 807 09:39:28 -1583.232665  -0.84  -2.20
iter: 808 09:45:49 -1581.712030  -1.14  -1.85
iter: 809 09:52:00 -1581.442481  -1.16  -1.95
Writing to output.gpw (mode='')

iter: 810 09:58:07 -1581.625113  -0.75  -2.18
iter: 811 10:04:40 -1581.921216  -1.64  -2.32
iter: 812 10:11:05 -1582.007315  -2.59  -2.32
iter: 813 10:17:19 -1582.690718  -1.56  -2.31
iter: 814 10:23:51 -1582.473979  -1.68  -1.96
Writing to output.gpw (mode='')

iter: 815 10:30:02 -1582.517534  -2.08  -1.95
iter: 816 10:36:19 -1581.943385  -1.22  -1.92
iter: 817 10:42:47 -1582.035202  -1.06  -2.64
iter: 818 10:49:09 -1582.012042c -1.58  -2.56
iter: 819 10:55:30 -1581.965400c -2.29  -2.77
Writing to output.gpw (mode='')

iter: 820 11:02:00 -1584.109640  -0.78  -2.90
iter: 821 11:08:30 -1583.919760  -0.99  -1.69
iter: 822 11:14:56 -1583.266622  -1.32  -1.68
iter: 823 11:21:05 -1583.656871  -1.57  -1.68
iter: 824 11:27:13 -1581.980478  -1.54  -1.66
Writing to output.gpw (mode='')

iter: 825 11:33:18 -1588.311720  -0.12  -1.73
iter: 826 11:39:30 -1582.946513  -0.47  -1.59
iter: 827 11:45:50 -1580.741699  -1.02  -1.65
iter: 828 11:52:09 -1581.002159  -0.37  -1.90
iter: 829 11:58:27 -1581.305650  -0.94  -2.03
Writing to output.gpw (mode='')

iter: 830 12:05:05 -1581.574943  -0.63  -2.18
iter: 831 12:11:14 -1581.854649  -1.23  -2.57
iter: 832 12:17:43 -1581.957649  -2.10  -2.62
iter: 833 12:23:55 -1581.926213c -2.09  -2.54
iter: 834 12:30:12 -1582.119769  -1.23  -2.79
Writing to output.gpw (mode='')

iter: 835 12:36:24 -1582.175173  -1.23  -2.48
iter: 836 12:42:53 -1582.014259c -1.84  -2.36
iter: 837 12:49:03 -1582.031087c -1.67  -2.42
iter: 838 12:55:11 -1582.046124c -1.29  -2.66
iter: 839 13:01:37 -1581.980856c -2.55  -2.66
Writing to output.gpw (mode='')

iter: 840 13:08:00 -1582.099341c -2.20  -2.76
iter: 841 13:14:21 -1582.156519c -1.53  -2.42
iter: 842 13:20:41 -1583.683298  -1.37  -2.33
iter: 843 13:26:52 -1583.938779  -0.58  -1.81
iter: 844 13:33:26 -1582.133834  -1.59  -1.76
Writing to output.gpw (mode='')

iter: 845 13:39:43 -1581.430980  -1.35  -1.81
iter: 846 13:45:55 -1581.943839  -1.55  -2.07
iter: 847 13:51:57 -1583.311941  -1.31  -2.08
iter: 848 13:58:16 -1583.778820  -1.14  -1.80
iter: 849 14:04:30 -1582.740352  -1.80  -1.75
Writing to output.gpw (mode='')

iter: 850 14:10:34 -1585.865636  -0.92  -1.76
iter: 851 14:16:40 -1582.017180  -1.24  -1.50
iter: 852 14:22:51 -1580.024776  -0.85  -1.55
iter: 853 14:29:01 -1580.674310  -0.50  -1.69
iter: 854 14:35:13 -1580.902217  -1.12  -1.74
Writing to output.gpw (mode='')

iter: 855 14:41:20 -1581.615273  -1.09  -1.81
iter: 856 14:47:25 -1581.398159  -1.08  -1.85
iter: 857 14:53:34 -1582.169169  -0.33  -2.35
iter: 858 14:59:57 -1582.688008  -0.42  -2.36
iter: 859 15:06:11 -1582.356472  -0.81  -2.16
Writing to output.gpw (mode='')

iter: 860 15:12:39 -1581.923544  -1.59  -2.13
iter: 861 15:18:54 -1582.496053  -1.50  -2.27
iter: 862 15:25:18 -1582.153460  -1.58  -2.08
iter: 863 15:31:31 -1582.224825  -2.29  -2.10
iter: 864 15:37:45 -1587.593470  -0.33  -2.08
Writing to output.gpw (mode='')

iter: 865 15:44:10 -1579.816467  -0.38  -1.55
iter: 866 15:50:31 -1580.556148  -0.16  -1.75
iter: 867 15:56:48 -1581.834119  -0.11  -2.47
iter: 868 16:03:00 -1582.332063  -0.97  -2.58
iter: 869 16:09:25 -1583.450547  -0.30  -2.28
Writing to output.gpw (mode='')

iter: 870 16:15:46 -1583.698440  -0.67  -1.98
iter: 871 16:22:12 -1586.906853  -0.47  -1.87
iter: 872 16:28:26 -1582.426139  -1.13  -1.64
iter: 873 16:34:48 -1581.165840  -1.07  -1.71
iter: 874 16:41:09 -1581.397577  -0.53  -2.12
Writing to output.gpw (mode='')

iter: 875 16:47:52 -1581.790266  -1.05  -2.33
iter: 876 16:54:30 -1588.548260  -0.55  -2.45
iter: 877 17:01:02 -1584.605292  -0.94  -1.51
iter: 878 17:07:06 -1583.752711  -1.61  -1.52
iter: 879 17:13:48 -1581.108011  -1.20  -1.53
Writing to output.gpw (mode='')

iter: 880 17:20:04 -1579.331010  -0.28  -1.62
iter: 881 17:26:10 -1580.900843  +0.22  -2.04
iter: 882 17:32:22 -1581.698196  -0.83  -2.33
iter: 883 17:38:28 -1587.896528  -0.34  -2.39
iter: 884 17:44:42 -1590.595293  -0.22  -1.54
Writing to output.gpw (mode='')

iter: 885 17:51:04 -1591.455288  -0.25  -1.46
iter: 886 17:57:13 -1594.491224  -0.27  -1.42
iter: 887 18:03:19 -1579.301925  -0.36  -1.34
iter: 888 18:09:33 -1577.770039  -0.15  -1.45
iter: 889 18:15:47 -1581.186343  -0.56  -2.09
Writing to output.gpw (mode='')

iter: 890 18:21:51 -1594.898252  -0.08  -2.09
iter: 891 18:28:05 -1592.381114  -0.07  -1.39
iter: 892 18:34:10 -1591.847879  -0.75  -1.36
iter: 893 18:40:20 -1587.317761  -0.90  -1.34
iter: 894 18:46:27 -1579.496642  -0.67  -1.34
Writing to output.gpw (mode='')

iter: 895 18:52:44 -1578.969163  +0.02  -1.59
iter: 896 18:58:40 -1581.629198  +0.33  -2.23
iter: 897 19:04:47 -1582.516167  -0.51  -2.32
iter: 898 19:10:43 -1582.400217  -0.84  -2.09
iter: 899 19:17:02 -1581.753706  -0.92  -2.03
Writing to output.gpw (mode='')

iter: 900 19:23:30 -1582.012359  -0.60  -2.39
iter: 901 19:29:59 -1582.110675  -1.25  -2.36
iter: 902 19:36:08 -1582.017008c -1.44  -2.31
iter: 903 19:42:41 -1582.410940  -1.55  -2.32
iter: 904 19:49:05 -1583.554140  -0.77  -2.13
Writing to output.gpw (mode='')

iter: 905 19:55:15 -1584.205838  -0.62  -1.92
iter: 906 20:01:30 -1581.718706  -1.08  -1.81
iter: 907 20:07:59 -1581.451034  -1.09  -1.94
iter: 908 20:14:30 -1582.170511  -0.31  -2.27
iter: 909 20:20:58 -1582.841127  -0.36  -2.32
Writing to output.gpw (mode='')

iter: 910 20:27:38 -1582.852334  -0.53  -2.14
iter: 911 20:34:03 -1581.777180  -1.18  -2.03
iter: 912 20:40:15 -1581.883270  -1.29  -2.25
iter: 913 20:46:29 -1583.855051  -0.52  -2.46
iter: 914 20:52:58 -1585.413594  -0.00  -1.97
Writing to output.gpw (mode='')

iter: 915 20:59:21 -1582.625444  -1.29  -1.79
iter: 916 21:05:31 -1588.310225  -0.53  -1.84
iter: 917 21:11:46 -1585.074890  -0.97  -1.45
iter: 918 21:18:19 -1583.441090  -1.68  -1.46
iter: 919 21:24:20 -1579.286117  -0.68  -1.49
Writing to output.gpw (mode='')

iter: 920 21:30:38 -1582.407229  -1.54  -1.71
iter: 921 21:36:47 -1582.161465  -1.94  -1.68
iter: 922 21:43:18 -1582.547501  -0.44  -1.72
iter: 923 21:49:26 -1582.783889  -0.43  -2.08
iter: 924 21:55:48 -1581.742055  -1.03  -2.01
Writing to output.gpw (mode='')

iter: 925 22:02:08 -1583.470776  -0.64  -2.18
iter: 926 22:08:36 -1583.658346  -0.33  -1.95
iter: 927 22:14:52 -1581.905991  -1.41  -1.86
iter: 928 22:21:27 -1581.613432  -1.31  -1.95
iter: 929 22:27:39 -1582.775775  -0.35  -2.38
Writing to output.gpw (mode='')

iter: 930 22:34:06 -1582.585970  -0.44  -2.17
iter: 931 22:40:25 -1583.018579  -0.68  -2.10
iter: 932 22:46:43 -1585.577927  -0.26  -2.07
iter: 933 22:52:49 -1585.462771  -0.25  -1.78
iter: 934 22:59:14 -1585.518126c -0.57  -1.69
Writing to output.gpw (mode='')

iter: 935 23:05:26 -1581.982610  -1.15  -1.64
iter: 936 23:11:56 -1583.481654  -1.78  -1.72
iter: 937 23:18:03 -1581.237233  -0.73  -1.69
iter: 938 23:24:20 -1583.871402  -0.11  -2.34
iter: 939 23:30:32 -1584.180353  -0.00  -2.00
Writing to output.gpw (mode='')

iter: 940 23:37:04 -1584.636099  -0.60  -1.87
iter: 941 23:43:21 -1581.807688  -1.01  -1.77
iter: 942 23:49:55 -1581.902446  -0.78  -1.89
iter: 943 23:56:17 -1584.390116  -0.11  -2.45
iter: 944 00:02:44 -1583.770061  -0.23  -1.93
Writing to output.gpw (mode='')

iter: 945 00:09:17 -1581.763418  -1.25  -1.85
iter: 946 00:15:46 -1581.544028  -1.52  -1.97
iter: 947 00:22:08 -1582.164583  -1.80  -2.13
iter: 948 00:28:24 -1584.404708  -1.01  -2.07
iter: 949 00:34:39 -1582.814985  -1.40  -1.63
Writing to output.gpw (mode='')

iter: 950 00:41:07 -1584.628014  -1.44  -1.65
iter: 951 00:47:36 -1583.352886  -1.61  -1.59
iter: 952 00:53:39 -1581.888684  -1.70  -1.60
iter: 953 00:59:58 -1585.856859  -0.25  -1.71
iter: 954 01:06:26 -1581.673072  -0.60  -1.75
Writing to output.gpw (mode='')

iter: 955 01:13:02 -1584.728405  -0.32  -1.87
iter: 956 01:19:10 -1584.860730  -0.16  -1.83
iter: 957 01:25:23 -1583.174867  -1.01  -1.75
iter: 958 01:31:31 -1583.147841  -1.58  -1.76
iter: 959 01:38:03 -1581.371013  -0.87  -1.74
Writing to output.gpw (mode='')

iter: 960 01:44:11 -1581.982968  -0.37  -2.40
iter: 961 01:50:47 -1582.021045  -0.87  -2.52
iter: 962 01:56:56 -1581.979501c -1.87  -2.48
iter: 963 02:03:13 -1582.722074  -1.28  -2.49
iter: 964 02:09:23 -1584.997061  -0.44  -2.03
Writing to output.gpw (mode='')

iter: 965 02:15:40 -1585.634794  -0.37  -1.77
iter: 966 02:21:47 -1581.967471  -1.10  -1.69
iter: 967 02:28:18 -1581.908385  -0.77  -1.78
iter: 968 02:34:36 -1581.917845c -1.20  -2.49
iter: 969 02:41:01 -1584.473599  -0.69  -2.59
Writing to output.gpw (mode='')

iter: 970 02:47:15 -1582.776128  -1.23  -1.74
iter: 971 02:53:38 -1581.422166  -1.18  -1.76
iter: 972 03:00:00 -1581.474165  -0.80  -2.08
iter: 973 03:06:11 -1581.643997  -0.87  -2.27
iter: 974 03:12:13 -1582.381795  -0.55  -2.62
Writing to output.gpw (mode='')

iter: 975 03:18:39 -1582.679378  -0.46  -2.38
iter: 976 03:24:57 -1582.098907  -1.47  -2.17
iter: 977 03:31:26 -1582.104730  -2.17  -2.24
iter: 978 03:37:35 -1581.993527c -2.14  -2.22
iter: 979 03:44:06 -1581.967636c -2.27  -2.27
Writing to output.gpw (mode='')

iter: 980 03:50:15 -1584.417737  -0.75  -2.30
iter: 981 03:56:39 -1581.541084  -0.85  -1.71
iter: 982 04:02:57 -1581.664860  -0.66  -1.80
iter: 983 04:09:15 -1582.563585  -0.08  -2.61
iter: 984 04:15:33 -1583.149346  -0.69  -2.26
Writing to output.gpw (mode='')

iter: 985 04:21:50 -1583.475678  -0.37  -2.01
iter: 986 04:28:20 -1582.610419  -1.21  -1.90
iter: 987 04:34:51 -1582.355809  -1.78  -1.90
iter: 988 04:41:13 -1582.447268  -1.68  -1.91
iter: 989 04:47:37 -1582.141823  -1.73  -1.90
Writing to output.gpw (mode='')

iter: 990 04:54:18 -1582.363843  -1.03  -1.94
iter: 991 05:00:41 -1582.459808  -0.78  -2.03
iter: 992 05:07:16 -1583.102577  -0.74  -2.01
iter: 993 05:13:53 -1582.477427  -0.59  -1.95
iter: 994 05:20:19 -1581.648271  -1.19  -1.97
Writing to output.gpw (mode='')

iter: 995 05:26:20 -1581.998974  -0.79  -2.23
iter: 996 05:32:54 -1582.523017  -0.53  -2.51
iter: 997 05:38:58 -1582.868726  -0.70  -2.24
iter: 998 05:45:20 -1582.752743  -0.79  -2.06
iter: 999 05:51:37 -1581.732083  -1.30  -1.99

Did not converge!

Here are some tips:

1) Make sure the geometry and spin-state is physically sound.
2) Use less aggressive density mixing.
3) Solve the eigenvalue problem more accurately at each scf-step.
4) Use a smoother distribution function for the occupation numbers.
5) Try adding more empty states.
6) Use enough k-points.
7) Don't let your structure optimization algorithm take too large steps.
8) Solve the Poisson equation more accurately.
9) Better initial guess for the wave functions.

See details here:

    https://wiki.fysik.dtu.dk/gpaw/documentation/convergence.html


