
  ___ ___ ___ _ _ _  
 |   |   |_  | | | | 
 | | | | | . | | | | 
 |__ |  _|___|_____|  22.8.0
 |___|_|             

User:   vazumah@c20.hercules
Date:   Thu Jan 19 01:08:45 2023
Arch:   x86_64
Pid:    13592
CWD:    /home/vazumah/Python_projects/LiNRR/autocad_start/slab_experiments/free_slabs/Rb/bcc110/substrate
Python: 3.10.8
gpaw:   /home/vazumah/.conda/envs/GPAW/lib/python3.10/site-packages/gpaw
_gpaw:  /home/vazumah/.conda/envs/GPAW/lib/python3.10/site-packages/
        _gpaw.cpython-310-x86_64-linux-gnu.so
ase:    /home/vazumah/.conda/envs/GPAW/lib/python3.10/site-packages/ase (version 3.22.1)
numpy:  /home/vazumah/.conda/envs/GPAW/lib/python3.10/site-packages/numpy (version 1.24.1)
scipy:  /home/vazumah/.conda/envs/GPAW/lib/python3.10/site-packages/scipy (version 1.10.0)
libxc:  5.2.3
units:  Angstrom and eV
cores: 24
OpenMP: True
OMP_NUM_THREADS: 1

Input parameters:
  eigensolver: {name: dav,
                niter: 3}
  h: 0.16
  kpts: {size: [2, 4, 1]}
  maxiter: 999
  mixer: {backend: pulay,
          beta: 0.02,
          method: separate,
          nmaxold: 5,
          weight: 100}
  occupations: {name: fermi-dirac,
                width: 0.05}
  poissonsolver: {dipolelayer: xy}
  xc: BEEF-vdW

System changes: positions, numbers, cell, pbc, initial_charges, initial_magmoms 

Initialize ...

species:
  Rb:
    name: Rubidium
    id: f3ee551b8c21dced9198efb7d29049b4
    Z: 37.0
    valence: 9
    core: 28
    charge: 0.0
    file: /home/vazumah/.conda/envs/GPAW/share/gpaw/Rb.PBE.gz
    compensation charges: {type: gauss,
                           rc: 0.38,
                           lmax: 2}
    cutoffs: {filter: 2.43,
              core: 1.99}
    valence states:
      #              energy  rcut
      - 4s(2.00)   -31.879   1.376
      - 5s(1.00)    -2.231   1.376
      - 4p(6.00)   -15.966   1.270
      -  p          11.245   1.270
      -  d           0.000   1.217
  
    # Using partial waves for Rb as LCAO basis

Reference energy: -2919720.687235  # eV

Spin-paired calculation

Convergence criteria:
 Maximum [total energy] change in last 3 cyles: 0.0005 eV / electron
 Maximum integral of absolute [dens]ity change: 0.0001 electrons / valence electron
 Maximum integral of absolute [eigenst]ate change: 4e-08 eV^2 / valence electron
 Maximum number of scf [iter]ations: 999
 (Square brackets indicate name in SCF output, whereas a 'c' in
 the SCF output indicates the quantity has converged.)

Symmetries present (total): 4

  ( 1  0  0)  ( 1  0  0)  (-1  0  0)  (-1  0  0)
  ( 1 -1  0)  ( 0  1  0)  ( 0 -1  0)  (-1  1  0)
  ( 0  0  1)  ( 0  0  1)  ( 0  0  1)  ( 0  0  1)

8 k-points: 2 x 4 x 1 Monkhorst-Pack grid
3 k-points in the irreducible part of the Brillouin zone
       k-points in crystal coordinates                weights
   0:     0.25000000   -0.37500000    0.00000000          2/8
   1:     0.25000000    0.12500000    0.00000000          2/8
   2:     0.25000000    0.37500000    0.00000000          4/8

Wave functions: Uniform real-space grid
  Kinetic energy operator: 8*3+1=25 point O(h^6) finite-difference Laplacian
  ScaLapack parameters: grid=1x1, blocksize=None
  Wavefunction extrapolation:
    Improved wavefunction reuse through dual PAW basis 

Occupation numbers: Fermi-Dirac:
  width: 0.0500  # eV
 

Eigensolver
   Davidson(niter=3) 

Densities:
  Coarse grid: 84*84*200 grid
  Fine grid: 168*168*400 grid
  Total Charge: 0.000000 

Density mixing:
  Method: separate
  Backend: pulay
  Linear mixing parameter: 0.02
  old densities: 5
  Damping of long wavelength oscillations: 100 

Hamiltonian:
  XC and Coulomb potentials evaluated on a 168*168*400 grid
  Using the BEEF-vdW Exchange-Correlation functional
  Interpolation: tri-quintic (5. degree polynomial)
  Poisson solver: FastPoissonSolver using
    Stencil: 8*3+1=25 point O(h^6) finite-difference Laplacian
    FFT axes: [0, 1]
    FST axes: [2]

Dipole correction along z-axis 

XC parameters: BEEF-vdW with 2 nearest neighbor stencil

Memory estimate:
  Process memory now: 210.24 MiB
  Calculator: 1096.37 MiB
    Density: 96.11 MiB
      Arrays: 34.61 MiB
      Localized functions: 48.31 MiB
      Mixer: 13.19 MiB
    Hamiltonian: 26.33 MiB
      Arrays: 22.64 MiB
      XC: 0.00 MiB
      Poisson: 0.00 MiB
      vbar: 3.70 MiB
    Wavefunctions: 973.92 MiB
      Arrays psit_nG: 474.81 MiB
      Eigensolver: 492.95 MiB
      Projections: 0.16 MiB
      Projectors: 6.01 MiB

Total number of cores used: 24
Parallelization over k-points: 3
Domain decomposition: 1 x 2 x 4

Number of atoms: 36
Number of atomic orbitals: 180
Number of bands in calculation: 180
Number of valence electrons: 324
Bands to converge: occupied

... initialized

Initializing position-dependent things.

Density initialized from atomic densities
Creating initial wave functions:
  180 bands from LCAO basis set

                                                                 
                                                                 
                                                                 
                                                                 
                                                                 
                                                                 
                          Rb            Rb           Rb          
                                                                 
                            Rb            Rb            Rb       
                 Rb           Rb            Rb                   
                                                                 
       Rb          RbRb          RbRb         Rb                 
                                                                 
          Rb           Rb            Rb                          
                                                                 
                                                                 
                          Rb            Rb           Rb          
                                                                 
                 Rb         RbRb          RbRb          Rb       
                                                                 
                   Rb            Rb           Rb                 
       Rb            Rb            Rb                            
                                                                 
          Rb           Rb            Rb                          
                                                                 
                                                                 
                                                                 
                                                                 
                                                                 
                                                                 

Positions:
   0 Rb     0.000000    3.952727   10.000000    ( 0.0000,  0.0000,  0.0000)
   1 Rb     5.590000    3.952727   10.000000    ( 0.0000,  0.0000,  0.0000)
   2 Rb    11.180000    3.952727   10.000000    ( 0.0000,  0.0000,  0.0000)
   3 Rb     2.795000    7.905454   10.000000    ( 0.0000,  0.0000,  0.0000)
   4 Rb     8.385000    7.905454   10.000000    ( 0.0000,  0.0000,  0.0000)
   5 Rb    13.975000    7.905454   10.000000    ( 0.0000,  0.0000,  0.0000)
   6 Rb     5.590000   11.858181   10.000000    ( 0.0000,  0.0000,  0.0000)
   7 Rb    11.180000   11.858181   10.000000    ( 0.0000,  0.0000,  0.0000)
   8 Rb    16.770000   11.858181   10.000000    ( 0.0000,  0.0000,  0.0000)
   9 Rb     0.000000    0.000000   13.952727    ( 0.0000,  0.0000,  0.0000)
  10 Rb     5.590000    0.000000   13.952727    ( 0.0000,  0.0000,  0.0000)
  11 Rb    11.180000    0.000000   13.952727    ( 0.0000,  0.0000,  0.0000)
  12 Rb     2.795000    3.952727   13.952727    ( 0.0000,  0.0000,  0.0000)
  13 Rb     8.385000    3.952727   13.952727    ( 0.0000,  0.0000,  0.0000)
  14 Rb    13.975000    3.952727   13.952727    ( 0.0000,  0.0000,  0.0000)
  15 Rb     5.590000    7.905454   13.952727    ( 0.0000,  0.0000,  0.0000)
  16 Rb    11.180000    7.905454   13.952727    ( 0.0000,  0.0000,  0.0000)
  17 Rb    16.770000    7.905454   13.952727    ( 0.0000,  0.0000,  0.0000)
  18 Rb     0.000000    3.952727   17.905454    ( 0.0000,  0.0000,  0.0000)
  19 Rb     5.590000    3.952727   17.905454    ( 0.0000,  0.0000,  0.0000)
  20 Rb    11.180000    3.952727   17.905454    ( 0.0000,  0.0000,  0.0000)
  21 Rb     2.795000    7.905454   17.905454    ( 0.0000,  0.0000,  0.0000)
  22 Rb     8.385000    7.905454   17.905454    ( 0.0000,  0.0000,  0.0000)
  23 Rb    13.975000    7.905454   17.905454    ( 0.0000,  0.0000,  0.0000)
  24 Rb     5.590000   11.858181   17.905454    ( 0.0000,  0.0000,  0.0000)
  25 Rb    11.180000   11.858181   17.905454    ( 0.0000,  0.0000,  0.0000)
  26 Rb    16.770000   11.858181   17.905454    ( 0.0000,  0.0000,  0.0000)
  27 Rb     0.000000    0.000000   21.858181    ( 0.0000,  0.0000,  0.0000)
  28 Rb     5.590000    0.000000   21.858181    ( 0.0000,  0.0000,  0.0000)
  29 Rb    11.180000    0.000000   21.858181    ( 0.0000,  0.0000,  0.0000)
  30 Rb     2.795000    3.952727   21.858181    ( 0.0000,  0.0000,  0.0000)
  31 Rb     8.385000    3.952727   21.858181    ( 0.0000,  0.0000,  0.0000)
  32 Rb    13.975000    3.952727   21.858181    ( 0.0000,  0.0000,  0.0000)
  33 Rb     5.590000    7.905454   21.858181    ( 0.0000,  0.0000,  0.0000)
  34 Rb    11.180000    7.905454   21.858181    ( 0.0000,  0.0000,  0.0000)
  35 Rb    16.770000    7.905454   21.858181    ( 0.0000,  0.0000,  0.0000)

Unit cell:
           periodic     x           y           z      points  spacing
  1. axis:    yes   16.770000    0.000000    0.000000    84     0.1630
  2. axis:    yes    8.385000   11.858181    0.000000    84     0.1412
  3. axis:    no     0.000000    0.000000   31.858181   200     0.1593

  Lengths:  16.770000  14.523246  31.858181
  Angles:   90.000000  90.000000  54.735610

Effective grid spacing dv^(1/3) = 0.1650

     iter     time        total  log10-change:
                         energy  eigst   dens
iter:   1 01:24:23 -3709.785622
iter:   2 01:38:33 -3711.593043  -0.07  -1.38
iter:   3 01:52:43 -3710.622281  -0.55  -1.38
iter:   4 02:06:21 -3710.417498  -0.78  -1.51
Writing to output.gpw (mode='')

iter:   5 02:20:20 -3710.009169  -1.06  -1.62
iter:   6 02:34:10 -3710.192197  -1.60  -1.79
iter:   7 02:47:59 -3710.293625  -1.51  -1.75
iter:   8 03:01:38 -3710.279759c -1.89  -1.86
iter:   9 03:15:22 -3710.288917c -2.07  -2.50
Writing to output.gpw (mode='')

iter:  10 03:29:17 -3710.303042c -2.39  -2.52
iter:  11 03:43:08 -3710.298619c -2.56  -2.44
iter:  12 03:57:05 -3710.301063c -2.91  -2.63
iter:  13 04:11:04 -3710.300883c -2.95  -2.72
iter:  14 04:25:02 -3710.303934c -3.19  -2.69
Writing to output.gpw (mode='')

iter:  15 04:39:08 -3710.311968c -3.16  -2.73
iter:  16 04:53:06 -3710.307437c -3.36  -2.66
iter:  17 05:07:06 -3710.309660c -3.69  -2.79
iter:  18 05:20:17 -3710.306975c -3.77  -2.72
iter:  19 05:34:10 -3710.307239c -3.96  -2.78
Writing to output.gpw (mode='')

iter:  20 05:48:20 -3710.315179c -3.50  -2.77
iter:  21 06:02:11 -3710.311631c -3.82  -2.69
iter:  22 06:16:11 -3710.310633c -4.03  -2.87
iter:  23 06:30:19 -3710.310787c -4.02  -3.05
iter:  24 06:44:24 -3710.310884c -4.40  -3.06
Writing to output.gpw (mode='')

iter:  25 06:58:39 -3710.310879c -4.36  -3.06
iter:  26 07:12:33 -3710.310954c -4.69  -3.05
iter:  27 07:26:26 -3710.311685c -4.81  -3.05
iter:  28 07:40:40 -3710.312730c -4.50  -3.15
iter:  29 07:54:46 -3710.312648c -4.67  -3.45
Writing to output.gpw (mode='')

iter:  30 08:08:40 -3710.312677c -5.05  -3.53
iter:  31 08:22:28 -3710.312737c -5.12  -3.55
iter:  32 08:36:20 -3710.312509c -5.14  -3.63
iter:  33 08:50:03 -3710.312549c -5.38  -3.64
iter:  34 09:03:58 -3710.312558c -5.62  -3.69
Writing to output.gpw (mode='')

iter:  35 09:18:05 -3710.312599c -5.77  -3.72
iter:  36 09:32:08 -3710.312670c -5.69  -3.75
iter:  37 09:46:12 -3710.312731c -5.68  -3.88
iter:  38 10:00:22 -3710.312730c -5.70  -4.00
iter:  39 10:14:25 -3710.312662c -6.19  -4.08c
Writing to output.gpw (mode='')

iter:  40 10:28:15 -3710.312668c -6.33  -4.19c
iter:  41 10:42:11 -3710.312702c -6.35  -4.25c
iter:  42 10:56:10 -3710.312686c -6.57  -4.25c
iter:  43 11:10:15 -3710.312671c -6.66  -4.32c
iter:  44 11:24:19 -3710.312655c -6.87  -4.35c
Writing to output.gpw (mode='')

iter:  45 11:38:12 -3710.312639c -6.88  -4.38c
iter:  46 11:52:06 -3710.312628c -6.93  -4.48c
iter:  47 12:06:00 -3710.312627c -6.93  -4.52c
iter:  48 12:19:48 -3710.312611c -6.77  -4.61c
iter:  49 12:33:40 -3710.312606c -6.84  -4.74c
Writing to output.gpw (mode='')

iter:  50 12:47:29 -3710.312614c -7.15  -4.81c
iter:  51 13:01:20 -3710.312612c -7.31  -4.83c
iter:  52 13:15:28 -3710.312600c -7.23  -4.97c
iter:  53 13:29:31 -3710.312600c -7.13  -5.09c
iter:  54 13:43:31 -3710.312589c -7.41c -5.07c

Converged after 54 iterations.

Dipole moment: (-49.650925, -33.195353, -0.000251) |e|*Ang

Energy contributions relative to reference atoms: (reference = -2919720.687235)

Kinetic:       +340.678749
Potential:     -306.098503
External:        +0.000000
XC:            -3740.936326
Entropy (-ST):   -0.328896
Local:           -3.792060
--------------------------
Free energy:   -3710.477037
Extrapolated:  -3710.312589

Dipole-layer corrected work functions: 2.411961, 2.412190 eV

Showing only first 2 kpts
 Kpt  Band  Eigenvalues  Occupancy
  0   160     -2.37523    0.64738
  0   161     -2.37521    0.64717
  0   162     -2.36771    0.58336
  0   163     -2.27008    0.11042

  1   160     -2.73409    1.99681
  1   161     -2.67369    1.98938
  1   162     -2.50821    1.74488
  1   163     -2.25743    0.08680


Fermi level: -2.41208

No gap
Writing to output.gpw (mode='')


Forces in eV/Ang:
  0 Rb    0.00000    0.00000   -0.08556
  1 Rb    0.00000    0.00000   -0.08556
  2 Rb   -0.00000    0.00000   -0.08556
  3 Rb   -0.00000   -0.00000   -0.08556
  4 Rb    0.00000   -0.00000   -0.08556
  5 Rb    0.00000   -0.00000   -0.08556
  6 Rb   -0.00000    0.00000   -0.08556
  7 Rb    0.00000    0.00000   -0.08556
  8 Rb    0.00000    0.00000   -0.08556
  9 Rb    0.00000    0.00000   -0.02481
 10 Rb    0.00000    0.00000   -0.02481
 11 Rb   -0.00000    0.00000   -0.02481
 12 Rb   -0.00000    0.00000   -0.02481
 13 Rb    0.00000    0.00000   -0.02481
 14 Rb    0.00000    0.00000   -0.02481
 15 Rb    0.00000   -0.00000   -0.02481
 16 Rb   -0.00000   -0.00000   -0.02481
 17 Rb    0.00000   -0.00000   -0.02481
 18 Rb    0.00000    0.00000    0.02480
 19 Rb   -0.00000    0.00000    0.02480
 20 Rb    0.00000    0.00000    0.02480
 21 Rb    0.00000   -0.00000    0.02480
 22 Rb    0.00000   -0.00000    0.02480
 23 Rb   -0.00000   -0.00000    0.02480
 24 Rb   -0.00000    0.00000    0.02480
 25 Rb    0.00000    0.00000    0.02480
 26 Rb    0.00000    0.00000    0.02480
 27 Rb    0.00000    0.00000    0.08560
 28 Rb    0.00000    0.00000    0.08560
 29 Rb   -0.00000    0.00000    0.08560
 30 Rb   -0.00000    0.00000    0.08560
 31 Rb    0.00000    0.00000    0.08560
 32 Rb    0.00000    0.00000    0.08560
 33 Rb    0.00000   -0.00000    0.08560
 34 Rb   -0.00000   -0.00000    0.08560
 35 Rb    0.00000   -0.00000    0.08560

System changes: positions 

Initializing position-dependent things.

Density initialized from wave functions
                                                                 
                                                                 
                                                                 
                                                                 
                                                                 
                                                                 
                          Rb            Rb           Rb          
                                                                 
                            Rb            Rb            Rb       
                 Rb           Rb            Rb                   
                                                                 
       Rb          RbRb          RbRb         Rb                 
                                                                 
          Rb           Rb            Rb                          
                                                                 
                                                                 
                          Rb            Rb           Rb          
                                                                 
                 Rb         RbRb          RbRb          Rb       
                                                                 
                   Rb            Rb           Rb                 
       Rb            Rb            Rb                            
                                                                 
          Rb           Rb            Rb                          
                                                                 
                                                                 
                                                                 
                                                                 
                                                                 
                                                                 

Positions:
   0 Rb     0.000000    3.952727    9.998778    ( 0.0000,  0.0000,  0.0000)
   1 Rb     5.590000    3.952727    9.998778    ( 0.0000,  0.0000,  0.0000)
   2 Rb    11.180000    3.952727    9.998778    ( 0.0000,  0.0000,  0.0000)
   3 Rb     2.795000    7.905454    9.998778    ( 0.0000,  0.0000,  0.0000)
   4 Rb     8.385000    7.905454    9.998778    ( 0.0000,  0.0000,  0.0000)
   5 Rb    13.975000    7.905454    9.998778    ( 0.0000,  0.0000,  0.0000)
   6 Rb     5.590000   11.858181    9.998778    ( 0.0000,  0.0000,  0.0000)
   7 Rb    11.180000   11.858181    9.998778    ( 0.0000,  0.0000,  0.0000)
   8 Rb    16.770000   11.858181    9.998778    ( 0.0000,  0.0000,  0.0000)
   9 Rb     0.000000    0.000000   13.952372    ( 0.0000,  0.0000,  0.0000)
  10 Rb     5.590000    0.000000   13.952372    ( 0.0000,  0.0000,  0.0000)
  11 Rb    11.180000    0.000000   13.952372    ( 0.0000,  0.0000,  0.0000)
  12 Rb     2.795000    3.952727   13.952372    ( 0.0000,  0.0000,  0.0000)
  13 Rb     8.385000    3.952727   13.952372    ( 0.0000,  0.0000,  0.0000)
  14 Rb    13.975000    3.952727   13.952372    ( 0.0000,  0.0000,  0.0000)
  15 Rb     5.590000    7.905454   13.952372    ( 0.0000,  0.0000,  0.0000)
  16 Rb    11.180000    7.905454   13.952372    ( 0.0000,  0.0000,  0.0000)
  17 Rb    16.770000    7.905454   13.952372    ( 0.0000,  0.0000,  0.0000)
  18 Rb     0.000000    3.952727   17.905808    ( 0.0000,  0.0000,  0.0000)
  19 Rb     5.590000    3.952727   17.905808    ( 0.0000,  0.0000,  0.0000)
  20 Rb    11.180000    3.952727   17.905808    ( 0.0000,  0.0000,  0.0000)
  21 Rb     2.795000    7.905454   17.905808    ( 0.0000,  0.0000,  0.0000)
  22 Rb     8.385000    7.905454   17.905808    ( 0.0000,  0.0000,  0.0000)
  23 Rb    13.975000    7.905454   17.905808    ( 0.0000,  0.0000,  0.0000)
  24 Rb     5.590000   11.858181   17.905808    ( 0.0000,  0.0000,  0.0000)
  25 Rb    11.180000   11.858181   17.905808    ( 0.0000,  0.0000,  0.0000)
  26 Rb    16.770000   11.858181   17.905808    ( 0.0000,  0.0000,  0.0000)
  27 Rb     0.000000    0.000000   21.859404    ( 0.0000,  0.0000,  0.0000)
  28 Rb     5.590000    0.000000   21.859404    ( 0.0000,  0.0000,  0.0000)
  29 Rb    11.180000    0.000000   21.859404    ( 0.0000,  0.0000,  0.0000)
  30 Rb     2.795000    3.952727   21.859404    ( 0.0000,  0.0000,  0.0000)
  31 Rb     8.385000    3.952727   21.859404    ( 0.0000,  0.0000,  0.0000)
  32 Rb    13.975000    3.952727   21.859404    ( 0.0000,  0.0000,  0.0000)
  33 Rb     5.590000    7.905454   21.859404    ( 0.0000,  0.0000,  0.0000)
  34 Rb    11.180000    7.905454   21.859404    ( 0.0000,  0.0000,  0.0000)
  35 Rb    16.770000    7.905454   21.859404    ( 0.0000,  0.0000,  0.0000)

Unit cell:
           periodic     x           y           z      points  spacing
  1. axis:    yes   16.770000    0.000000    0.000000    84     0.1630
  2. axis:    yes    8.385000   11.858181    0.000000    84     0.1412
  3. axis:    no     0.000000    0.000000   31.858181   200     0.1593

  Lengths:  16.770000  14.523246  31.858181
  Angles:   90.000000  90.000000  54.735610

Effective grid spacing dv^(1/3) = 0.1650

     iter     time        total  log10-change:
                         energy  eigst   dens
iter:   1 13:59:13 -3710.314682  -4.93
iter:   2 14:13:18 -3710.314670  -5.89  -4.08c
iter:   3 14:27:21 -3710.314614c -6.59  -4.13c
iter:   4 14:41:18 -3710.314612c -7.04  -4.57c
Writing to output.gpw (mode='')

iter:   5 14:55:33 -3710.314614c -7.43c -4.57c

Converged after 5 iterations.

Dipole moment: (-49.650834, -33.195236, 0.000146) |e|*Ang

Energy contributions relative to reference atoms: (reference = -2919720.687235)

Kinetic:       +340.617276
Potential:     -306.069844
External:        +0.000000
XC:            -3740.935943
Entropy (-ST):   -0.328939
Local:           -3.761633
--------------------------
Free energy:   -3710.479083
Extrapolated:  -3710.314614

Dipole-layer corrected work functions: 2.413224, 2.413091 eV

Showing only first 2 kpts
 Kpt  Band  Eigenvalues  Occupancy
  0   160     -2.37642    0.64829
  0   161     -2.37640    0.64809
  0   162     -2.36891    0.58433
  0   163     -2.27107    0.11022

  1   160     -2.73520    1.99681
  1   161     -2.67494    1.98941
  1   162     -2.50920    1.74446
  1   163     -2.25850    0.08678


Fermi level: -2.41316

No gap

Forces in eV/Ang:
  0 Rb   -0.00000    0.00000   -0.08488
  1 Rb    0.00000   -0.00000   -0.08488
  2 Rb   -0.00000   -0.00000   -0.08488
  3 Rb   -0.00000    0.00000   -0.08488
  4 Rb    0.00000   -0.00000   -0.08488
  5 Rb    0.00000    0.00000   -0.08488
  6 Rb   -0.00000    0.00000   -0.08488
  7 Rb    0.00000    0.00000   -0.08488
  8 Rb    0.00000    0.00000   -0.08488
  9 Rb    0.00000    0.00000   -0.02300
 10 Rb    0.00000    0.00000   -0.02300
 11 Rb   -0.00000    0.00000   -0.02300
 12 Rb   -0.00000    0.00000   -0.02300
 13 Rb    0.00000    0.00000   -0.02300
 14 Rb    0.00000    0.00000   -0.02300
 15 Rb    0.00000   -0.00000   -0.02300
 16 Rb   -0.00000   -0.00000   -0.02300
 17 Rb    0.00000   -0.00000   -0.02300
 18 Rb    0.00000    0.00000    0.02314
 19 Rb   -0.00000    0.00000    0.02314
 20 Rb    0.00000    0.00000    0.02314
 21 Rb    0.00000   -0.00000    0.02314
 22 Rb    0.00000   -0.00000    0.02314
 23 Rb   -0.00000   -0.00000    0.02314
 24 Rb   -0.00000    0.00000    0.02314
 25 Rb    0.00000    0.00000    0.02314
 26 Rb    0.00000    0.00000    0.02314
 27 Rb    0.00000    0.00000    0.08448
 28 Rb    0.00000    0.00000    0.08448
 29 Rb   -0.00000    0.00000    0.08448
 30 Rb   -0.00000    0.00000    0.08448
 31 Rb   -0.00000    0.00000    0.08448
 32 Rb    0.00000    0.00000    0.08448
 33 Rb    0.00000   -0.00000    0.08448
 34 Rb   -0.00000   -0.00000    0.08448
 35 Rb   -0.00000   -0.00000    0.08448

System changes: positions 

Initializing position-dependent things.

Density initialized from wave functions
                                                                 
                                                                 
                                                                 
                                                                 
                                                                 
                                                                 
                          Rb            Rb           Rb          
                                                                 
                                                                 
                 Rb         RbRb          RbRb          Rb       
                                                                 
       Rb          RbRb          RbRb         Rb                 
                                                                 
                                                                 
          Rb           Rb            Rb                          
                                                                 
                          Rb            Rb           Rb          
                                                                 
                                                                 
                 Rb         RbRb          RbRb          Rb       
                                                                 
       Rb          RbRb          RbRb         Rb                 
                                                                 
                                                                 
          Rb           Rb            Rb                          
                                                                 
                                                                 
                                                                 
                                                                 
                                                                 
                                                                 

Positions:
   0 Rb     0.000000    3.952727    9.988778    ( 0.0000,  0.0000,  0.0000)
   1 Rb     5.590000    3.952727    9.988778    ( 0.0000,  0.0000,  0.0000)
   2 Rb    11.180000    3.952727    9.988778    ( 0.0000,  0.0000,  0.0000)
   3 Rb     2.795000    7.905454    9.988778    ( 0.0000,  0.0000,  0.0000)
   4 Rb     8.385000    7.905454    9.988778    ( 0.0000,  0.0000,  0.0000)
   5 Rb    13.975000    7.905454    9.988778    ( 0.0000,  0.0000,  0.0000)
   6 Rb     5.590000   11.858181    9.988778    ( 0.0000,  0.0000,  0.0000)
   7 Rb    11.180000   11.858181    9.988778    ( 0.0000,  0.0000,  0.0000)
   8 Rb    16.770000   11.858181    9.988778    ( 0.0000,  0.0000,  0.0000)
   9 Rb    -0.000000    0.000000   13.949660    ( 0.0000,  0.0000,  0.0000)
  10 Rb     5.590000    0.000000   13.949660    ( 0.0000,  0.0000,  0.0000)
  11 Rb    11.180000   -0.000000   13.949660    ( 0.0000,  0.0000,  0.0000)
  12 Rb     2.795000    3.952727   13.949660    ( 0.0000,  0.0000,  0.0000)
  13 Rb     8.385000    3.952727   13.949660    ( 0.0000,  0.0000,  0.0000)
  14 Rb    13.975000    3.952727   13.949660    ( 0.0000,  0.0000,  0.0000)
  15 Rb     5.590000    7.905454   13.949660    ( 0.0000,  0.0000,  0.0000)
  16 Rb    11.180000    7.905454   13.949660    ( 0.0000,  0.0000,  0.0000)
  17 Rb    16.770000    7.905454   13.949660    ( 0.0000,  0.0000,  0.0000)
  18 Rb     0.000000    3.952727   17.908537    ( 0.0000,  0.0000,  0.0000)
  19 Rb     5.590000    3.952727   17.908537    ( 0.0000,  0.0000,  0.0000)
  20 Rb    11.180000    3.952727   17.908537    ( 0.0000,  0.0000,  0.0000)
  21 Rb     2.795000    7.905454   17.908537    ( 0.0000,  0.0000,  0.0000)
  22 Rb     8.385000    7.905454   17.908537    ( 0.0000,  0.0000,  0.0000)
  23 Rb    13.975000    7.905454   17.908537    ( 0.0000,  0.0000,  0.0000)
  24 Rb     5.590000   11.858181   17.908537    ( 0.0000,  0.0000,  0.0000)
  25 Rb    11.180000   11.858181   17.908537    ( 0.0000,  0.0000,  0.0000)
  26 Rb    16.770000   11.858181   17.908537    ( 0.0000,  0.0000,  0.0000)
  27 Rb    -0.000000   -0.000000   21.869357    ( 0.0000,  0.0000,  0.0000)
  28 Rb     5.590000   -0.000000   21.869357    ( 0.0000,  0.0000,  0.0000)
  29 Rb    11.180000   -0.000000   21.869357    ( 0.0000,  0.0000,  0.0000)
  30 Rb     2.795000    3.952727   21.869357    ( 0.0000,  0.0000,  0.0000)
  31 Rb     8.385000    3.952727   21.869357    ( 0.0000,  0.0000,  0.0000)
  32 Rb    13.975000    3.952727   21.869357    ( 0.0000,  0.0000,  0.0000)
  33 Rb     5.590000    7.905454   21.869357    ( 0.0000,  0.0000,  0.0000)
  34 Rb    11.180000    7.905454   21.869357    ( 0.0000,  0.0000,  0.0000)
  35 Rb    16.770000    7.905454   21.869357    ( 0.0000,  0.0000,  0.0000)

Unit cell:
           periodic     x           y           z      points  spacing
  1. axis:    yes   16.770000    0.000000    0.000000    84     0.1630
  2. axis:    yes    8.385000   11.858181    0.000000    84     0.1412
  3. axis:    no     0.000000    0.000000   31.858181   200     0.1593

  Lengths:  16.770000  14.523246  31.858181
  Angles:   90.000000  90.000000  54.735610

Effective grid spacing dv^(1/3) = 0.1650

     iter     time        total  log10-change:
                         energy  eigst   dens
iter:   1 15:11:17 -3710.330085  -3.15
iter:   2 15:25:18 -3710.330201  -4.28  -3.52
iter:   3 15:39:16 -3710.330110c -4.81  -3.55
iter:   4 15:53:11 -3710.329999c -5.31  -3.67
Writing to output.gpw (mode='')

iter:   5 16:07:10 -3710.329966c -5.62  -3.82
iter:   6 16:20:53 -3710.329960c -5.85  -4.02c
iter:   7 16:34:46 -3710.329958c -6.11  -4.28c
iter:   8 16:48:30 -3710.329958c -6.53  -4.27c
iter:   9 17:02:21 -3710.329958c -6.49  -4.38c
Writing to output.gpw (mode='')

iter:  10 17:16:22 -3710.329956c -6.74  -4.65c
iter:  11 17:30:18 -3710.329957c -6.98  -4.66c
iter:  12 17:44:20 -3710.329961c -7.17  -4.70c
iter:  13 17:58:15 -3710.329958c -7.42c -4.97c

Converged after 13 iterations.

Dipole moment: (-49.650928, -33.195247, 0.000080) |e|*Ang

Energy contributions relative to reference atoms: (reference = -2919720.687235)

Kinetic:       +340.012448
Potential:     -305.606821
External:        +0.000000
XC:            -3740.825423
Entropy (-ST):   -0.330077
Local:           -3.745123
--------------------------
Free energy:   -3710.494996
Extrapolated:  -3710.329958

Dipole-layer corrected work functions: 2.413615, 2.413543 eV

Showing only first 2 kpts
 Kpt  Band  Eigenvalues  Occupancy
  0   160     -2.37877    0.66533
  0   161     -2.37875    0.66513
  0   162     -2.37138    0.60138
  0   163     -2.26983    0.10682

  1   160     -2.73475    1.99676
  1   161     -2.67755    1.98986
  1   162     -2.50798    1.73704
  1   163     -2.25950    0.08774


Fermi level: -2.41358

No gap
Writing to output.gpw (mode='')


Forces in eV/Ang:
  0 Rb    0.00000    0.00000   -0.07874
  1 Rb    0.00000   -0.00000   -0.07874
  2 Rb   -0.00000   -0.00000   -0.07874
  3 Rb   -0.00000    0.00000   -0.07874
  4 Rb   -0.00000   -0.00000   -0.07874
  5 Rb    0.00000    0.00000   -0.07874
  6 Rb   -0.00000    0.00000   -0.07874
  7 Rb    0.00000    0.00000   -0.07874
  8 Rb    0.00000    0.00000   -0.07874
  9 Rb    0.00000    0.00000   -0.01951
 10 Rb   -0.00000    0.00000   -0.01951
 11 Rb    0.00000    0.00000   -0.01951
 12 Rb   -0.00000    0.00000   -0.01951
 13 Rb    0.00000    0.00000   -0.01951
 14 Rb    0.00000    0.00000   -0.01951
 15 Rb    0.00000   -0.00000   -0.01951
 16 Rb   -0.00000   -0.00000   -0.01951
 17 Rb    0.00000   -0.00000   -0.01951
 18 Rb   -0.00000   -0.00000    0.01952
 19 Rb   -0.00000    0.00000    0.01952
 20 Rb    0.00000    0.00000    0.01952
 21 Rb    0.00000   -0.00000    0.01952
 22 Rb   -0.00000    0.00000    0.01952
 23 Rb   -0.00000   -0.00000    0.01952
 24 Rb    0.00000    0.00000    0.01952
 25 Rb   -0.00000    0.00000    0.01952
 26 Rb    0.00000    0.00000    0.01952
 27 Rb    0.00000    0.00000    0.07868
 28 Rb   -0.00000    0.00000    0.07868
 29 Rb    0.00000    0.00000    0.07868
 30 Rb   -0.00000    0.00000    0.07868
 31 Rb    0.00000    0.00000    0.07868
 32 Rb    0.00000    0.00000    0.07868
 33 Rb    0.00000   -0.00000    0.07868
 34 Rb   -0.00000   -0.00000    0.07868
 35 Rb    0.00000   -0.00000    0.07868

System changes: positions 

Initializing position-dependent things.

Density initialized from wave functions
                                                                 
                                                                 
                                                                 
                                                                 
                                                                 
                                                                 
                          Rb            Rb           Rb          
                                                                 
                                                                 
                 Rb         RbRb          RbRb          Rb       
                                                                 
       Rb          RbRb          RbRb         Rb                 
                                                                 
                                                                 
          Rb           Rb            Rb                          
                                                                 
                          Rb            Rb           Rb          
                                                                 
                                                                 
                 Rb         RbRb          RbRb          Rb       
                                                                 
       Rb          RbRb          RbRb         Rb                 
                                                                 
                                                                 
          Rb           Rb            Rb                          
                                                                 
                                                                 
                                                                 
                                                                 
                                                                 
                                                                 

Positions:
   0 Rb     0.000000    3.952727    9.978778    ( 0.0000,  0.0000,  0.0000)
   1 Rb     5.590000    3.952727    9.978778    ( 0.0000,  0.0000,  0.0000)
   2 Rb    11.180000    3.952727    9.978778    ( 0.0000,  0.0000,  0.0000)
   3 Rb     2.795000    7.905454    9.978778    ( 0.0000,  0.0000,  0.0000)
   4 Rb     8.385000    7.905454    9.978778    ( 0.0000,  0.0000,  0.0000)
   5 Rb    13.975000    7.905454    9.978778    ( 0.0000,  0.0000,  0.0000)
   6 Rb     5.590000   11.858181    9.978778    ( 0.0000,  0.0000,  0.0000)
   7 Rb    11.180000   11.858181    9.978778    ( 0.0000,  0.0000,  0.0000)
   8 Rb    16.770000   11.858181    9.978778    ( 0.0000,  0.0000,  0.0000)
   9 Rb    -0.000000    0.000000   13.946975    ( 0.0000,  0.0000,  0.0000)
  10 Rb     5.590000    0.000000   13.946975    ( 0.0000,  0.0000,  0.0000)
  11 Rb    11.180000   -0.000000   13.946975    ( 0.0000,  0.0000,  0.0000)
  12 Rb     2.795000    3.952727   13.946975    ( 0.0000,  0.0000,  0.0000)
  13 Rb     8.385000    3.952727   13.946975    ( 0.0000,  0.0000,  0.0000)
  14 Rb    13.975000    3.952727   13.946975    ( 0.0000,  0.0000,  0.0000)
  15 Rb     5.590000    7.905454   13.946975    ( 0.0000,  0.0000,  0.0000)
  16 Rb    11.180000    7.905454   13.946975    ( 0.0000,  0.0000,  0.0000)
  17 Rb    16.770000    7.905454   13.946975    ( 0.0000,  0.0000,  0.0000)
  18 Rb     0.000000    3.952727   17.911236    ( 0.0000,  0.0000,  0.0000)
  19 Rb     5.590000    3.952727   17.911236    ( 0.0000,  0.0000,  0.0000)
  20 Rb    11.180000    3.952727   17.911236    ( 0.0000,  0.0000,  0.0000)
  21 Rb     2.795000    7.905454   17.911236    ( 0.0000,  0.0000,  0.0000)
  22 Rb     8.385000    7.905454   17.911236    ( 0.0000,  0.0000,  0.0000)
  23 Rb    13.975000    7.905454   17.911236    ( 0.0000,  0.0000,  0.0000)
  24 Rb     5.590000   11.858181   17.911236    ( 0.0000,  0.0000,  0.0000)
  25 Rb    11.180000   11.858181   17.911236    ( 0.0000,  0.0000,  0.0000)
  26 Rb    16.770000   11.858181   17.911236    ( 0.0000,  0.0000,  0.0000)
  27 Rb    -0.000000   -0.000000   21.879316    ( 0.0000,  0.0000,  0.0000)
  28 Rb     5.590000    0.000000   21.879316    ( 0.0000,  0.0000,  0.0000)
  29 Rb    11.180000   -0.000000   21.879316    ( 0.0000,  0.0000,  0.0000)
  30 Rb     2.795000    3.952727   21.879316    ( 0.0000,  0.0000,  0.0000)
  31 Rb     8.385000    3.952727   21.879316    ( 0.0000,  0.0000,  0.0000)
  32 Rb    13.975000    3.952727   21.879316    ( 0.0000,  0.0000,  0.0000)
  33 Rb     5.590000    7.905454   21.879316    ( 0.0000,  0.0000,  0.0000)
  34 Rb    11.180000    7.905454   21.879316    ( 0.0000,  0.0000,  0.0000)
  35 Rb    16.770000    7.905454   21.879316    ( 0.0000,  0.0000,  0.0000)

Unit cell:
           periodic     x           y           z      points  spacing
  1. axis:    yes   16.770000    0.000000    0.000000    84     0.1630
  2. axis:    yes    8.385000   11.858181    0.000000    84     0.1412
  3. axis:    no     0.000000    0.000000   31.858181   200     0.1593

  Lengths:  16.770000  14.523246  31.858181
  Angles:   90.000000  90.000000  54.735610

Effective grid spacing dv^(1/3) = 0.1650

     iter     time        total  log10-change:
                         energy  eigst   dens
iter:   1 18:14:13 -3710.343883  -3.14
iter:   2 18:28:21 -3710.343978  -4.26  -3.45
iter:   3 18:42:23 -3710.343755c -4.81  -3.49
iter:   4 18:56:35 -3710.343737c -5.34  -3.72
Writing to output.gpw (mode='')

iter:   5 19:10:40 -3710.343610c -5.61  -3.75
iter:   6 19:24:36 -3710.343572c -5.93  -4.04c
iter:   7 19:38:20 -3710.343569c -6.09  -4.20c
iter:   8 19:52:07 -3710.343645c -6.31  -4.20c
iter:   9 20:05:55 -3710.343621c -6.62  -4.27c
Writing to output.gpw (mode='')

iter:  10 20:19:44 -3710.343624c -6.61  -4.55c
iter:  11 20:33:28 -3710.343623c -7.04  -4.53c
iter:  12 20:47:19 -3710.343615c -6.74  -4.40c
iter:  13 21:00:57 -3710.343611c -7.12  -4.39c
iter:  14 21:14:48 -3710.343613c -7.35  -4.50c
Writing to output.gpw (mode='')

iter:  15 21:28:48 -3710.343574c -6.60  -4.36c
iter:  16 21:42:49 -3710.343595c -7.21  -4.44c
iter:  17 21:56:50 -3710.343600c -7.78c -4.75c

Converged after 17 iterations.

Dipole moment: (-49.650946, -33.195155, 0.000018) |e|*Ang

Energy contributions relative to reference atoms: (reference = -2919720.687235)

Kinetic:       +339.494798
Potential:     -305.225721
External:        +0.000000
XC:            -3740.735021
Entropy (-ST):   -0.331170
Local:           -3.712071
--------------------------
Free energy:   -3710.509185
Extrapolated:  -3710.343600

Dipole-layer corrected work functions: 2.414044, 2.414028 eV

Showing only first 2 kpts
 Kpt  Band  Eigenvalues  Occupancy
  0   160     -2.38113    0.68232
  0   161     -2.38111    0.68211
  0   162     -2.37385    0.61843
  0   163     -2.26863    0.10350

  1   160     -2.73442    1.99671
  1   161     -2.68017    1.99029
  1   162     -2.50679    1.72943
  1   163     -2.26051    0.08868


Fermi level: -2.41404

No gap
Writing to output.gpw (mode='')


Forces in eV/Ang:
  0 Rb    0.00000   -0.00000   -0.06725
  1 Rb   -0.00000    0.00000   -0.06725
  2 Rb    0.00000    0.00000   -0.06725
  3 Rb    0.00000   -0.00000   -0.06725
  4 Rb    0.00000    0.00000   -0.06725
  5 Rb   -0.00000   -0.00000   -0.06725
  6 Rb    0.00000    0.00000   -0.06725
  7 Rb   -0.00000    0.00000   -0.06725
  8 Rb    0.00000    0.00000   -0.06725
  9 Rb    0.00000    0.00000   -0.01585
 10 Rb   -0.00000    0.00000   -0.01585
 11 Rb    0.00000    0.00000   -0.01585
 12 Rb   -0.00000   -0.00000   -0.01585
 13 Rb   -0.00000    0.00000   -0.01585
 14 Rb    0.00000   -0.00000   -0.01585
 15 Rb    0.00000    0.00000   -0.01585
 16 Rb   -0.00000    0.00000   -0.01585
 17 Rb    0.00000   -0.00000   -0.01585
 18 Rb    0.00000   -0.00000    0.01572
 19 Rb   -0.00000    0.00000    0.01572
 20 Rb    0.00000    0.00000    0.01572
 21 Rb    0.00000   -0.00000    0.01572
 22 Rb   -0.00000    0.00000    0.01572
 23 Rb   -0.00000   -0.00000    0.01572
 24 Rb    0.00000    0.00000    0.01572
 25 Rb   -0.00000    0.00000    0.01572
 26 Rb    0.00000    0.00000    0.01572
 27 Rb    0.00000    0.00000    0.06749
 28 Rb   -0.00000    0.00000    0.06749
 29 Rb    0.00000    0.00000    0.06749
 30 Rb   -0.00000   -0.00000    0.06749
 31 Rb   -0.00000    0.00000    0.06749
 32 Rb    0.00000   -0.00000    0.06749
 33 Rb    0.00000    0.00000    0.06749
 34 Rb   -0.00000    0.00000    0.06749
 35 Rb   -0.00000   -0.00000    0.06749

System changes: positions 

Initializing position-dependent things.

Density initialized from wave functions
                                                                 
                                                                 
                                                                 
                                                                 
                                                                 
                                                                 
                          Rb            Rb           Rb          
                                                                 
                                                                 
                 Rb         RbRb          RbRb          Rb       
                                                                 
       Rb          RbRb          RbRb         Rb                 
                                                                 
                                                                 
          Rb           Rb            Rb                          
                                                                 
                          Rb            Rb           Rb          
                                                                 
                                                                 
                 Rb         RbRb          RbRb          Rb       
                                                                 
       Rb          RbRb          RbRb         Rb                 
                                                                 
                                                                 
          Rb           Rb            Rb                          
                                                                 
                                                                 
                                                                 
                                                                 
                                                                 
                                                                 

Positions:
   0 Rb     0.000000    3.952727    9.968778    ( 0.0000,  0.0000,  0.0000)
   1 Rb     5.590000    3.952727    9.968778    ( 0.0000,  0.0000,  0.0000)
   2 Rb    11.180000    3.952727    9.968778    ( 0.0000,  0.0000,  0.0000)
   3 Rb     2.795000    7.905454    9.968778    ( 0.0000,  0.0000,  0.0000)
   4 Rb     8.385000    7.905454    9.968778    ( 0.0000,  0.0000,  0.0000)
   5 Rb    13.975000    7.905454    9.968778    ( 0.0000,  0.0000,  0.0000)
   6 Rb     5.590000   11.858181    9.968778    ( 0.0000,  0.0000,  0.0000)
   7 Rb    11.180000   11.858181    9.968778    ( 0.0000,  0.0000,  0.0000)
   8 Rb    16.770000   11.858181    9.968778    ( 0.0000,  0.0000,  0.0000)
   9 Rb    -0.000000    0.000000   13.944304    ( 0.0000,  0.0000,  0.0000)
  10 Rb     5.590000    0.000000   13.944304    ( 0.0000,  0.0000,  0.0000)
  11 Rb    11.180000    0.000000   13.944304    ( 0.0000,  0.0000,  0.0000)
  12 Rb     2.795000    3.952727   13.944304    ( 0.0000,  0.0000,  0.0000)
  13 Rb     8.385000    3.952727   13.944304    ( 0.0000,  0.0000,  0.0000)
  14 Rb    13.975000    3.952727   13.944304    ( 0.0000,  0.0000,  0.0000)
  15 Rb     5.590000    7.905454   13.944304    ( 0.0000,  0.0000,  0.0000)
  16 Rb    11.180000    7.905454   13.944304    ( 0.0000,  0.0000,  0.0000)
  17 Rb    16.770000    7.905454   13.944304    ( 0.0000,  0.0000,  0.0000)
  18 Rb     0.000000    3.952727   17.913920    ( 0.0000,  0.0000,  0.0000)
  19 Rb     5.590000    3.952727   17.913920    ( 0.0000,  0.0000,  0.0000)
  20 Rb    11.180000    3.952727   17.913920    ( 0.0000,  0.0000,  0.0000)
  21 Rb     2.795000    7.905454   17.913920    ( 0.0000,  0.0000,  0.0000)
  22 Rb     8.385000    7.905454   17.913920    ( 0.0000,  0.0000,  0.0000)
  23 Rb    13.975000    7.905454   17.913920    ( 0.0000,  0.0000,  0.0000)
  24 Rb     5.590000   11.858181   17.913920    ( 0.0000,  0.0000,  0.0000)
  25 Rb    11.180000   11.858181   17.913920    ( 0.0000,  0.0000,  0.0000)
  26 Rb    16.770000   11.858181   17.913920    ( 0.0000,  0.0000,  0.0000)
  27 Rb    -0.000000   -0.000000   21.889280    ( 0.0000,  0.0000,  0.0000)
  28 Rb     5.590000   -0.000000   21.889280    ( 0.0000,  0.0000,  0.0000)
  29 Rb    11.180000   -0.000000   21.889280    ( 0.0000,  0.0000,  0.0000)
  30 Rb     2.795000    3.952727   21.889280    ( 0.0000,  0.0000,  0.0000)
  31 Rb     8.385000    3.952727   21.889280    ( 0.0000,  0.0000,  0.0000)
  32 Rb    13.975000    3.952727   21.889280    ( 0.0000,  0.0000,  0.0000)
  33 Rb     5.590000    7.905454   21.889280    ( 0.0000,  0.0000,  0.0000)
  34 Rb    11.180000    7.905454   21.889280    ( 0.0000,  0.0000,  0.0000)
  35 Rb    16.770000    7.905454   21.889280    ( 0.0000,  0.0000,  0.0000)

Unit cell:
           periodic     x           y           z      points  spacing
  1. axis:    yes   16.770000    0.000000    0.000000    84     0.1630
  2. axis:    yes    8.385000   11.858181    0.000000    84     0.1412
  3. axis:    no     0.000000    0.000000   31.858181   200     0.1593

  Lengths:  16.770000  14.523246  31.858181
  Angles:   90.000000  90.000000  54.735610

Effective grid spacing dv^(1/3) = 0.1650

     iter     time        total  log10-change:
                         energy  eigst   dens
iter:   1 22:12:44 -3710.354727  -3.13
iter:   2 22:26:44 -3710.354766  -4.23  -3.36
iter:   3 22:40:42 -3710.354329c -4.84  -3.40
iter:   4 22:54:39 -3710.354402c -5.46  -3.77
Writing to output.gpw (mode='')

iter:   5 23:08:10 -3710.354334c -5.77  -3.68
iter:   6 23:18:45 -3710.354182c -5.75  -3.76
iter:   7 23:32:51 -3710.354183c -5.97  -4.18c
iter:   8 23:46:46 -3710.354256c -6.35  -4.19c
iter:   9 00:00:46 -3710.354249c -6.51  -4.30c
Writing to output.gpw (mode='')

iter:  10 00:14:36 -3710.354248c -6.72  -4.49c
iter:  11 00:28:30 -3710.354256c -7.01  -4.49c
iter:  12 00:42:25 -3710.354230c -6.66  -4.35c
iter:  13 00:56:28 -3710.354220c -6.77  -4.44c
iter:  14 01:10:15 -3710.354218c -7.08  -4.65c
Writing to output.gpw (mode='')

iter:  15 01:24:18 -3710.354221c -7.22  -4.92c
iter:  16 01:38:15 -3710.354221c -7.40c -5.03c

Converged after 16 iterations.

Dipole moment: (-49.651025, -33.195103, -0.000016) |e|*Ang

Energy contributions relative to reference atoms: (reference = -2919720.687235)

Kinetic:       +338.936731
Potential:     -304.798368
External:        +0.000000
XC:            -3740.638867
Entropy (-ST):   -0.332237
Local:           -3.687598
--------------------------
Free energy:   -3710.520340
Extrapolated:  -3710.354221

Dipole-layer corrected work functions: 2.414727, 2.414741 eV

Showing only first 2 kpts
 Kpt  Band  Eigenvalues  Occupancy
  0   160     -2.38371    0.69933
  0   161     -2.38369    0.69912
  0   162     -2.37653    0.63555
  0   163     -2.26777    0.10050

  1   160     -2.73426    1.99665
  1   161     -2.68303    1.99070
  1   162     -2.50594    1.72214
  1   163     -2.26172    0.08955


Fermi level: -2.41473

No gap
Writing to output.gpw (mode='')


Forces in eV/Ang:
  0 Rb    0.00000   -0.00000   -0.04800
  1 Rb   -0.00000    0.00000   -0.04800
  2 Rb    0.00000    0.00000   -0.04800
  3 Rb    0.00000   -0.00000   -0.04800
  4 Rb    0.00000    0.00000   -0.04800
  5 Rb   -0.00000   -0.00000   -0.04800
  6 Rb    0.00000    0.00000   -0.04800
  7 Rb   -0.00000    0.00000   -0.04800
  8 Rb    0.00000    0.00000   -0.04800
  9 Rb    0.00000    0.00000   -0.01211
 10 Rb   -0.00000    0.00000   -0.01211
 11 Rb    0.00000    0.00000   -0.01211
 12 Rb   -0.00000   -0.00000   -0.01211
 13 Rb    0.00000    0.00000   -0.01211
 14 Rb    0.00000   -0.00000   -0.01211
 15 Rb    0.00000    0.00000   -0.01211
 16 Rb   -0.00000    0.00000   -0.01211
 17 Rb    0.00000   -0.00000   -0.01211
 18 Rb    0.00000   -0.00000    0.01196
 19 Rb   -0.00000    0.00000    0.01196
 20 Rb    0.00000    0.00000    0.01196
 21 Rb    0.00000   -0.00000    0.01196
 22 Rb    0.00000    0.00000    0.01196
 23 Rb   -0.00000   -0.00000    0.01196
 24 Rb    0.00000    0.00000    0.01196
 25 Rb   -0.00000    0.00000    0.01196
 26 Rb    0.00000    0.00000    0.01196
 27 Rb    0.00000    0.00000    0.04837
 28 Rb   -0.00000    0.00000    0.04837
 29 Rb    0.00000    0.00000    0.04837
 30 Rb   -0.00000   -0.00000    0.04837
 31 Rb    0.00000    0.00000    0.04837
 32 Rb    0.00000   -0.00000    0.04837
 33 Rb    0.00000    0.00000    0.04837
 34 Rb   -0.00000    0.00000    0.04837
 35 Rb    0.00000   -0.00000    0.04837

Timing:                                      incl.     excl.
-------------------------------------------------------------------
Density initialized from wave functions:    14.391     8.907   0.0% |
 Symmetrize density:                         5.484     5.484   0.0% |
Forces:                                    123.790   123.790   0.1% |
Hamiltonian:                               840.821     0.001   0.0% |
 Atomic:                                     2.511     0.628   0.0% |
  XC Correction:                             1.882     1.882   0.0% |
 Calculate atomic Hamiltonians:              1.895     1.895   0.0% |
 Communicate:                                2.704     2.704   0.0% |
 Hartree integrate/restrict:                 1.427     1.427   0.0% |
 Initialize Hamiltonian:                     0.000     0.000   0.0% |
 Poisson:                                   20.615     8.773   0.0% |
  Communicate from 1D:                       2.164     2.164   0.0% |
  Communicate from 2D:                       2.288     2.288   0.0% |
  Communicate to 1D:                         1.254     1.254   0.0% |
  Communicate to 2D:                         2.734     2.734   0.0% |
  FFT 1D:                                    1.586     1.586   0.0% |
  FFT 2D:                                    1.816     1.816   0.0% |
 XC 3D grid:                               811.494    53.780   0.1% |
  VdW-DF integral:                         757.714     2.193   0.0% |
   Convolution:                             55.594    55.594   0.1% |
   FFT:                                     11.234    11.234   0.0% |
   gather:                                 537.907   537.907   0.6% |
   hmm1:                                    12.896    12.896   0.0% |
   hmm2:                                    16.153    16.153   0.0% |
   iFFT:                                    11.376    11.376   0.0% |
   potential:                               90.965     0.523   0.0% |
    collect:                                11.967    11.967   0.0% |
    p1:                                     34.020    34.020   0.0% |
    p2:                                     22.700    22.700   0.0% |
    sum:                                    21.755    21.755   0.0% |
   splines:                                 19.396    19.396   0.0% |
 vbar:                                       0.175     0.175   0.0% |
LCAO initialization:                        25.096     0.098   0.0% |
 LCAO eigensolver:                           0.831     0.002   0.0% |
  Calculate projections:                     0.000     0.000   0.0% |
  DenseAtomicCorrection:                     0.000     0.000   0.0% |
  Distribute overlap matrix:                 0.697     0.697   0.0% |
  Orbital Layouts:                           0.117     0.117   0.0% |
  Potential matrix:                          0.014     0.014   0.0% |
  Sum over cells:                            0.002     0.002   0.0% |
 LCAO to grid:                              23.651    23.651   0.0% |
 Set positions (LCAO WFS):                   0.515     0.368   0.0% |
  Basic WFS set positions:                   0.022     0.022   0.0% |
  Basis functions set positions:             0.001     0.001   0.0% |
  P tci:                                     0.000     0.000   0.0% |
  ST tci:                                    0.056     0.056   0.0% |
  mktci:                                     0.069     0.069   0.0% |
Redistribute:                                0.004     0.004   0.0% |
SCF-cycle:                               87026.524   406.685   0.5% |
 Davidson:                               69650.882 18069.082  20.5% |-------|
  Apply hamiltonian:                      3574.117  3574.117   4.1% |-|
  Subspace diag:                          9329.482     0.030   0.0% |
   calc_h_matrix:                         3265.206  1611.797   1.8% ||
    Apply hamiltonian:                    1653.409  1653.409   1.9% ||
   diagonalize:                            177.632   177.632   0.2% |
   rotate_psi:                            5886.614  5886.614   6.7% |--|
  calc. matrices:                        21772.168 16754.478  19.0% |-------|
   Apply hamiltonian:                     5017.690  5017.690   5.7% |-|
  diagonalize:                             172.630   172.630   0.2% |
  rotate_psi:                            16733.403 16733.403  19.0% |-------|
 Density:                                  312.755     0.004   0.0% |
  Atomic density matrices:                  20.712    20.712   0.0% |
  Mix:                                      36.448    36.448   0.0% |
  Multipole moments:                         0.278     0.278   0.0% |
  Pseudo density:                          255.313   132.985   0.2% |
   Symmetrize density:                     122.329   122.329   0.1% |
 Hamiltonian:                            16433.644     0.032   0.0% |
  Atomic:                                   43.528     8.511   0.0% |
   XC Correction:                           35.017    35.017   0.0% |
  Calculate atomic Hamiltonians:            36.663    36.663   0.0% |
  Communicate:                              57.108    57.108   0.1% |
  Hartree integrate/restrict:               25.053    25.053   0.0% |
  Poisson:                                 425.739   179.030   0.2% |
   Communicate from 1D:                     47.884    47.884   0.1% |
   Communicate from 2D:                     48.608    48.608   0.1% |
   Communicate to 1D:                       28.915    28.915   0.0% |
   Communicate to 2D:                       50.215    50.215   0.1% |
   FFT 1D:                                  34.336    34.336   0.0% |
   FFT 2D:                                  36.752    36.752   0.0% |
  XC 3D grid:                            15841.458  1099.748   1.2% |
   VdW-DF integral:                      14741.709    42.278   0.0% |
    Convolution:                          1113.805  1113.805   1.3% ||
    FFT:                                   230.876   230.876   0.3% |
    gather:                              10736.902 10736.902  12.2% |----|
    hmm1:                                  242.065   242.065   0.3% |
    hmm2:                                  342.040   342.040   0.4% |
    iFFT:                                  228.398   228.398   0.3% |
    potential:                            1805.343    12.148   0.0% |
     collect:                              236.640   236.640   0.3% |
     p1:                                   719.284   719.284   0.8% |
     p2:                                   490.364   490.364   0.6% |
     sum:                                  346.908   346.908   0.4% |
    splines:                                 0.001     0.001   0.0% |
  vbar:                                      4.063     4.063   0.0% |
 Orthonormalize:                           222.558     0.002   0.0% |
  calc_s_matrix:                            33.357    33.357   0.0% |
  inverse-cholesky:                          8.628     8.628   0.0% |
  projections:                              36.393    36.393   0.0% |
  rotate_psi_s:                            144.178   144.178   0.2% |
Set symmetry:                                0.006     0.006   0.0% |
Other:                                     165.530   165.530   0.2% |
-------------------------------------------------------------------
Total:                                             88196.162 100.0%

Memory usage: 3.69 GiB
Date: Fri Jan 20 01:38:41 2023
