
  ___ ___ ___ _ _ _  
 |   |   |_  | | | | 
 | | | | | . | | | | 
 |__ |  _|___|_____|  22.8.0
 |___|_|             

User:   vazumah@c22.hercules
Date:   Tue Jan 17 06:12:34 2023
Arch:   x86_64
Pid:    32423
CWD:    /home/vazumah/Python_projects/LiNRR/autocad_start/slab_experiments/free_slabs/Al/fcc100/substrate
Python: 3.10.8
gpaw:   /home/vazumah/.conda/envs/GPAW/lib/python3.10/site-packages/gpaw
_gpaw:  /home/vazumah/.conda/envs/GPAW/lib/python3.10/site-packages/
        _gpaw.cpython-310-x86_64-linux-gnu.so
ase:    /home/vazumah/.conda/envs/GPAW/lib/python3.10/site-packages/ase (version 3.22.1)
numpy:  /home/vazumah/.conda/envs/GPAW/lib/python3.10/site-packages/numpy (version 1.24.1)
scipy:  /home/vazumah/.conda/envs/GPAW/lib/python3.10/site-packages/scipy (version 1.10.0)
libxc:  5.2.3
units:  Angstrom and eV
cores: 24
OpenMP: True
OMP_NUM_THREADS: 1

Input parameters:
  h: 0.16
  kpts: {size: [4, 4, 1]}
  maxiter: 999
  occupations: {name: fermi-dirac,
                width: 0.05}
  poissonsolver: {dipolelayer: xy}
  xc: BEEF-vdW

System changes: positions, numbers, cell, pbc, initial_charges, initial_magmoms 

Initialize ...

species:
  Al:
    name: Aluminium
    id: 0292cae29f5d6237e50f6abdd43a7bdd
    Z: 13.0
    valence: 3
    core: 10
    charge: 0.0
    file: /home/vazumah/.conda/envs/GPAW/share/gpaw/Al.PBE.gz
    compensation charges: {type: gauss,
                           rc: 0.34,
                           lmax: 2}
    cutoffs: {filter: 1.91,
              core: 2.36}
    valence states:
      #              energy  rcut
      - 3s(2.00)    -7.753   1.085
      - 3p(1.00)    -2.712   1.085
      -  s          19.459   1.085
      -  p          24.499   1.085
      -  d           0.000   1.085
  
    # Using partial waves for Al as LCAO basis

Reference energy: -237723.237536  # eV

Spin-paired calculation

Convergence criteria:
 Maximum [total energy] change in last 3 cyles: 0.0005 eV / electron
 Maximum integral of absolute [dens]ity change: 0.0001 electrons / valence electron
 Maximum integral of absolute [eigenst]ate change: 4e-08 eV^2 / valence electron
 Maximum number of scf [iter]ations: 999
 (Square brackets indicate name in SCF output, whereas a 'c' in
 the SCF output indicates the quantity has converged.)

Symmetries present (total): 8

  ( 1  0  0)  ( 1  0  0)  ( 0  1  0)  ( 0  1  0)  ( 0 -1  0)  ( 0 -1  0)
  ( 0  1  0)  ( 0 -1  0)  ( 1  0  0)  (-1  0  0)  ( 1  0  0)  (-1  0  0)
  ( 0  0  1)  ( 0  0  1)  ( 0  0  1)  ( 0  0  1)  ( 0  0  1)  ( 0  0  1)

  (-1  0  0)  (-1  0  0)
  ( 0  1  0)  ( 0 -1  0)
  ( 0  0  1)  ( 0  0  1)

16 k-points: 4 x 4 x 1 Monkhorst-Pack grid
3 k-points in the irreducible part of the Brillouin zone
       k-points in crystal coordinates                weights
   0:     0.12500000    0.12500000    0.00000000          4/16
   1:     0.37500000    0.12500000    0.00000000          8/16
   2:     0.37500000    0.37500000    0.00000000          4/16

Wave functions: Uniform real-space grid
  Kinetic energy operator: 6*3+1=19 point O(h^6) finite-difference Laplacian
  ScaLapack parameters: grid=1x1, blocksize=None
  Wavefunction extrapolation:
    Improved wavefunction reuse through dual PAW basis 

Occupation numbers: Fermi-Dirac:
  width: 0.0500  # eV
 

Eigensolver
   Davidson(niter=2) 

Densities:
  Coarse grid: 52*52*164 grid
  Fine grid: 104*104*328 grid
  Total Charge: 0.000000 

Density mixing:
  Method: separate
  Backend: pulay
  Linear mixing parameter: 0.05
  old densities: 5
  Damping of long wavelength oscillations: 50 

Hamiltonian:
  XC and Coulomb potentials evaluated on a 104*104*328 grid
  Using the BEEF-vdW Exchange-Correlation functional
  Interpolation: tri-quintic (5. degree polynomial)
  Poisson solver: FastPoissonSolver using
    Stencil: 6*3+1=19 point O(h^6) finite-difference Laplacian
    FFT axes: [0, 1]
    FST axes: [2]

Dipole correction along z-axis 

XC parameters: BEEF-vdW with 2 nearest neighbor stencil

Memory estimate:
  Process memory now: 117.59 MiB
  Calculator: 170.48 MiB
    Density: 39.78 MiB
      Arrays: 10.85 MiB
      Localized functions: 24.80 MiB
      Mixer: 4.13 MiB
    Hamiltonian: 8.93 MiB
      Arrays: 7.10 MiB
      XC: 0.00 MiB
      Poisson: 0.00 MiB
      vbar: 1.83 MiB
    Wavefunctions: 121.77 MiB
      Arrays psit_nG: 56.94 MiB
      Eigensolver: 61.79 MiB
      Projections: 0.06 MiB
      Projectors: 2.98 MiB

Total number of cores used: 24
Parallelization over k-points: 3
Domain decomposition: 1 x 2 x 4

Number of atoms: 36
Number of atomic orbitals: 144
Number of bands in calculation: 69
Number of valence electrons: 108
Bands to converge: occupied

... initialized

Initializing position-dependent things.

Density initialized from atomic densities
Creating initial wave functions:
  69 bands from LCAO basis set

      .--------------------.  
     /|                    |  
    / |                    |  
   /  |                    |  
  /   |                    |  
 *    |                    |  
 |    |                    |  
 |    |                    |  
 |    |                    |  
 |    |                    |  
 |    |                    |  
 |    |                    |  
 |    |                    |  
 |    |                    |  
 |  Al|    Al     Al       |  
 |    |                    |  
 | Al |  AAl    AAl    Al  |  
 Al   |AAl    AAl    Al    |  
 |    |                    |  
 |  AAl    AAl    AAl      |  
 |    |                    |  
 | Al |  AAl    AAl    Al  |  
 Al   |AAl    AAl    Al    |  
 |    |                    |  
 |   Al     Al     Al      |  
 |    |                    |  
 |    |                    |  
 |    |                    |  
 |    |                    |  
 |    |                    |  
 |    |                    |  
 |    |                    |  
 |    .--------------------.  
 |   /                    /   
 |  /                    /    
 | /                    /     
 |/                    /      
 *--------------------*       

Positions:
   0 Al     1.431891    1.431891   10.000000    ( 0.0000,  0.0000,  0.0000)
   1 Al     4.295674    1.431891   10.000000    ( 0.0000,  0.0000,  0.0000)
   2 Al     7.159456    1.431891   10.000000    ( 0.0000,  0.0000,  0.0000)
   3 Al     1.431891    4.295674   10.000000    ( 0.0000,  0.0000,  0.0000)
   4 Al     4.295674    4.295674   10.000000    ( 0.0000,  0.0000,  0.0000)
   5 Al     7.159456    4.295674   10.000000    ( 0.0000,  0.0000,  0.0000)
   6 Al     1.431891    7.159456   10.000000    ( 0.0000,  0.0000,  0.0000)
   7 Al     4.295674    7.159456   10.000000    ( 0.0000,  0.0000,  0.0000)
   8 Al     7.159456    7.159456   10.000000    ( 0.0000,  0.0000,  0.0000)
   9 Al     0.000000    0.000000   12.025000    ( 0.0000,  0.0000,  0.0000)
  10 Al     2.863782    0.000000   12.025000    ( 0.0000,  0.0000,  0.0000)
  11 Al     5.727565    0.000000   12.025000    ( 0.0000,  0.0000,  0.0000)
  12 Al     0.000000    2.863782   12.025000    ( 0.0000,  0.0000,  0.0000)
  13 Al     2.863782    2.863782   12.025000    ( 0.0000,  0.0000,  0.0000)
  14 Al     5.727565    2.863782   12.025000    ( 0.0000,  0.0000,  0.0000)
  15 Al     0.000000    5.727565   12.025000    ( 0.0000,  0.0000,  0.0000)
  16 Al     2.863782    5.727565   12.025000    ( 0.0000,  0.0000,  0.0000)
  17 Al     5.727565    5.727565   12.025000    ( 0.0000,  0.0000,  0.0000)
  18 Al     1.431891    1.431891   14.050000    ( 0.0000,  0.0000,  0.0000)
  19 Al     4.295674    1.431891   14.050000    ( 0.0000,  0.0000,  0.0000)
  20 Al     7.159456    1.431891   14.050000    ( 0.0000,  0.0000,  0.0000)
  21 Al     1.431891    4.295674   14.050000    ( 0.0000,  0.0000,  0.0000)
  22 Al     4.295674    4.295674   14.050000    ( 0.0000,  0.0000,  0.0000)
  23 Al     7.159456    4.295674   14.050000    ( 0.0000,  0.0000,  0.0000)
  24 Al     1.431891    7.159456   14.050000    ( 0.0000,  0.0000,  0.0000)
  25 Al     4.295674    7.159456   14.050000    ( 0.0000,  0.0000,  0.0000)
  26 Al     7.159456    7.159456   14.050000    ( 0.0000,  0.0000,  0.0000)
  27 Al     0.000000    0.000000   16.075000    ( 0.0000,  0.0000,  0.0000)
  28 Al     2.863782    0.000000   16.075000    ( 0.0000,  0.0000,  0.0000)
  29 Al     5.727565    0.000000   16.075000    ( 0.0000,  0.0000,  0.0000)
  30 Al     0.000000    2.863782   16.075000    ( 0.0000,  0.0000,  0.0000)
  31 Al     2.863782    2.863782   16.075000    ( 0.0000,  0.0000,  0.0000)
  32 Al     5.727565    2.863782   16.075000    ( 0.0000,  0.0000,  0.0000)
  33 Al     0.000000    5.727565   16.075000    ( 0.0000,  0.0000,  0.0000)
  34 Al     2.863782    5.727565   16.075000    ( 0.0000,  0.0000,  0.0000)
  35 Al     5.727565    5.727565   16.075000    ( 0.0000,  0.0000,  0.0000)

Unit cell:
           periodic     x           y           z      points  spacing
  1. axis:    yes    8.591347    0.000000    0.000000    52     0.1652
  2. axis:    yes    0.000000    8.591347    0.000000    52     0.1652
  3. axis:    no     0.000000    0.000000   26.075000   164     0.1590

  Lengths:   8.591347   8.591347  26.075000
  Angles:   90.000000  90.000000  90.000000

Effective grid spacing dv^(1/3) = 0.1631

     iter     time        total  log10-change:
                         energy  eigst   dens
iter:   1 06:15:02  -997.557851
iter:   2 06:17:19  -998.048549  +0.31  -0.92
iter:   3 06:19:30  -997.758642  +0.23  -0.93
iter:   4 06:21:34  -997.661522  -0.61  -1.08
Writing to output.gpw (mode='')

iter:   5 06:23:43  -998.259187  +0.13  -1.13
iter:   6 06:25:46  -999.190809  +0.45  -1.43
iter:   7 06:27:55  -999.011159  -0.74  -1.27
iter:   8 06:30:04  -997.726288  -0.09  -1.27
iter:   9 06:32:11  -997.736750  -0.83  -1.88
Writing to output.gpw (mode='')

iter:  10 06:34:30  -997.739842c -0.50  -2.00
iter:  11 06:36:34  -997.750395c -1.36  -2.60
iter:  12 06:38:34  -997.763768c -2.22  -2.61
iter:  13 06:40:40  -997.754421c -2.29  -2.36
iter:  14 06:42:44  -997.753942c -2.29  -2.65
Writing to output.gpw (mode='')

iter:  15 06:44:52  -997.759355c -1.92  -2.78
iter:  16 06:46:52  -997.754726c -2.34  -2.47
iter:  17 06:48:59  -997.755392c -2.31  -2.82
iter:  18 06:51:04  -997.757321c -2.48  -2.89
iter:  19 06:53:05  -997.754751c -2.62  -2.61
Writing to output.gpw (mode='')

iter:  20 06:55:15  -997.754957c -3.18  -3.50
iter:  21 06:57:23  -997.755008c -3.63  -3.80
iter:  22 06:59:20  -997.755024c -4.04  -3.90
iter:  23 07:01:17  -997.755171c -3.79  -3.82
iter:  24 07:03:17  -997.755037c -4.64  -3.43
Writing to output.gpw (mode='')

iter:  25 07:05:22  -997.754965c -4.67  -3.63
iter:  26 07:07:24  -997.754969c -5.12  -3.89
iter:  27 07:09:21  -997.754976c -5.25  -3.89
iter:  28 07:11:17  -997.754926c -4.82  -3.89
iter:  29 07:13:19  -997.754926c -5.20  -4.08c
Writing to output.gpw (mode='')

iter:  30 07:14:41  -997.754941c -5.63  -4.13c
iter:  31 07:16:50  -997.754950c -5.69  -4.21c
iter:  32 07:19:04  -997.754939c -5.78  -4.27c
iter:  33 07:21:12  -997.754935c -5.88  -4.38c
iter:  34 07:23:11  -997.754952c -5.99  -4.54c
Writing to output.gpw (mode='')

iter:  35 07:25:18  -997.754945c -6.32  -4.64c
iter:  36 07:27:24  -997.754942c -6.31  -4.92c
iter:  37 07:29:26  -997.754947c -6.15  -5.00c
iter:  38 07:31:26  -997.754945c -6.82  -5.07c
iter:  39 07:33:22  -997.754942c -6.88  -5.18c
Writing to output.gpw (mode='')

iter:  40 07:35:21  -997.754946c -7.28  -5.15c
iter:  41 07:37:15  -997.754944c -7.20  -5.28c
iter:  42 07:39:14  -997.754943c -7.47c -5.38c

Converged after 42 iterations.

Dipole moment: (-6.842261, -6.842261, 0.000009) |e|*Ang

Energy contributions relative to reference atoms: (reference = -237723.237536)

Kinetic:        +63.371311
Potential:      -17.024226
External:        +0.000000
XC:            -1044.050298
Entropy (-ST):   -0.146877
Local:           +0.021708
--------------------------
Free energy:   -997.828382
Extrapolated:  -997.754943

Dipole-layer corrected work functions: 4.563837, 4.563816 eV

Showing only first 2 kpts
 Kpt  Band  Eigenvalues  Occupancy
  0    52     -4.94740    1.99907
  0    53     -4.94740    1.99907
  0    54     -4.85576    1.99419
  0    55     -4.85576    1.99419

  1    52     -4.63129    1.58805
  1    53     -4.56959    1.05758
  1    54     -4.53252    0.69675
  1    55     -4.37823    0.04770


Fermi level: -4.56383

No gap
Writing to output.gpw (mode='')


Forces in eV/Ang:
  0 Al    0.00178    0.00178   -0.21145
  1 Al    0.00000   -0.00175   -0.20667
  2 Al   -0.00178    0.00178   -0.21145
  3 Al   -0.00175    0.00000   -0.20667
  4 Al    0.00000    0.00000   -0.21734
  5 Al    0.00175    0.00000   -0.20667
  6 Al    0.00178   -0.00178   -0.21145
  7 Al    0.00000    0.00175   -0.20667
  8 Al   -0.00178   -0.00178   -0.21145
  9 Al    0.00000    0.00000   -0.06231
 10 Al   -0.00228    0.00000   -0.05764
 11 Al    0.00228    0.00000   -0.05764
 12 Al    0.00000   -0.00228   -0.05764
 13 Al    0.00078    0.00078   -0.06184
 14 Al   -0.00078    0.00078   -0.06184
 15 Al    0.00000    0.00228   -0.05764
 16 Al    0.00078   -0.00078   -0.06184
 17 Al   -0.00078   -0.00078   -0.06184
 18 Al   -0.00079   -0.00079    0.06182
 19 Al    0.00000    0.00228    0.05762
 20 Al    0.00079   -0.00079    0.06182
 21 Al    0.00228    0.00000    0.05762
 22 Al    0.00000    0.00000    0.06229
 23 Al   -0.00228    0.00000    0.05762
 24 Al   -0.00079    0.00079    0.06182
 25 Al    0.00000   -0.00228    0.05762
 26 Al    0.00079    0.00079    0.06182
 27 Al    0.00000    0.00000    0.21730
 28 Al    0.00175    0.00000    0.20663
 29 Al   -0.00175    0.00000    0.20663
 30 Al    0.00000    0.00175    0.20663
 31 Al   -0.00178   -0.00178    0.21141
 32 Al    0.00178   -0.00178    0.21141
 33 Al    0.00000   -0.00175    0.20663
 34 Al   -0.00178    0.00178    0.21141
 35 Al    0.00178    0.00178    0.21141

System changes: positions 

Initializing position-dependent things.

Density initialized from wave functions
      .--------------------.  
     /|                    |  
    / |                    |  
   /  |                    |  
  /   |                    |  
 *    |                    |  
 |    |                    |  
 |    |                    |  
 |    |                    |  
 |    |                    |  
 |    |                    |  
 |    |                    |  
 |    |                    |  
 |    |                    |  
 |  Al|    Al     Al       |  
 |    |                    |  
 | Al |  AAl    AAl    Al  |  
 Al   |AAl    AAl    Al    |  
 |    |                    |  
 |  AAl    AAl    AAl      |  
 |    |                    |  
 | Al |  AAl    AAl    Al  |  
 Al   |AAl    AAl    Al    |  
 |    |                    |  
 |   Al     Al     Al      |  
 |    |                    |  
 |    |                    |  
 |    |                    |  
 |    |                    |  
 |    |                    |  
 |    |                    |  
 |    |                    |  
 |    .--------------------.  
 |   /                    /   
 |  /                    /    
 | /                    /     
 |/                    /      
 *--------------------*       

Positions:
   0 Al     1.431917    1.431917    9.996979    ( 0.0000,  0.0000,  0.0000)
   1 Al     4.295674    1.431866    9.997048    ( 0.0000,  0.0000,  0.0000)
   2 Al     7.159431    1.431917    9.996979    ( 0.0000,  0.0000,  0.0000)
   3 Al     1.431866    4.295674    9.997048    ( 0.0000,  0.0000,  0.0000)
   4 Al     4.295674    4.295674    9.996895    ( 0.0000,  0.0000,  0.0000)
   5 Al     7.159481    4.295674    9.997048    ( 0.0000,  0.0000,  0.0000)
   6 Al     1.431917    7.159431    9.996979    ( 0.0000,  0.0000,  0.0000)
   7 Al     4.295674    7.159481    9.997048    ( 0.0000,  0.0000,  0.0000)
   8 Al     7.159431    7.159431    9.996979    ( 0.0000,  0.0000,  0.0000)
   9 Al     0.000000    0.000000   12.024110    ( 0.0000,  0.0000,  0.0000)
  10 Al     2.863750    0.000000   12.024177    ( 0.0000,  0.0000,  0.0000)
  11 Al     5.727597    0.000000   12.024177    ( 0.0000,  0.0000,  0.0000)
  12 Al     0.000000    2.863750   12.024177    ( 0.0000,  0.0000,  0.0000)
  13 Al     2.863794    2.863794   12.024117    ( 0.0000,  0.0000,  0.0000)
  14 Al     5.727554    2.863794   12.024117    ( 0.0000,  0.0000,  0.0000)
  15 Al     0.000000    5.727597   12.024177    ( 0.0000,  0.0000,  0.0000)
  16 Al     2.863794    5.727554   12.024117    ( 0.0000,  0.0000,  0.0000)
  17 Al     5.727554    5.727554   12.024117    ( 0.0000,  0.0000,  0.0000)
  18 Al     1.431880    1.431880   14.050883    ( 0.0000,  0.0000,  0.0000)
  19 Al     4.295674    1.431924   14.050823    ( 0.0000,  0.0000,  0.0000)
  20 Al     7.159467    1.431880   14.050883    ( 0.0000,  0.0000,  0.0000)
  21 Al     1.431924    4.295674   14.050823    ( 0.0000,  0.0000,  0.0000)
  22 Al     4.295674    4.295674   14.050890    ( 0.0000,  0.0000,  0.0000)
  23 Al     7.159424    4.295674   14.050823    ( 0.0000,  0.0000,  0.0000)
  24 Al     1.431880    7.159467   14.050883    ( 0.0000,  0.0000,  0.0000)
  25 Al     4.295674    7.159424   14.050823    ( 0.0000,  0.0000,  0.0000)
  26 Al     7.159467    7.159467   14.050883    ( 0.0000,  0.0000,  0.0000)
  27 Al     0.000000    0.000000   16.078104    ( 0.0000,  0.0000,  0.0000)
  28 Al     2.863807    0.000000   16.077952    ( 0.0000,  0.0000,  0.0000)
  29 Al     5.727540    0.000000   16.077952    ( 0.0000,  0.0000,  0.0000)
  30 Al     0.000000    2.863807   16.077952    ( 0.0000,  0.0000,  0.0000)
  31 Al     2.863757    2.863757   16.078020    ( 0.0000,  0.0000,  0.0000)
  32 Al     5.727590    2.863757   16.078020    ( 0.0000,  0.0000,  0.0000)
  33 Al     0.000000    5.727540   16.077952    ( 0.0000,  0.0000,  0.0000)
  34 Al     2.863757    5.727590   16.078020    ( 0.0000,  0.0000,  0.0000)
  35 Al     5.727590    5.727590   16.078020    ( 0.0000,  0.0000,  0.0000)

Unit cell:
           periodic     x           y           z      points  spacing
  1. axis:    yes    8.591347    0.000000    0.000000    52     0.1652
  2. axis:    yes    0.000000    8.591347    0.000000    52     0.1652
  3. axis:    no     0.000000    0.000000   26.075000   164     0.1590

  Lengths:   8.591347   8.591347  26.075000
  Angles:   90.000000  90.000000  90.000000

Effective grid spacing dv^(1/3) = 0.1631

     iter     time        total  log10-change:
                         energy  eigst   dens
iter:   1 07:41:36  -997.767468  -2.77
iter:   2 07:43:36  -997.767503  -3.56  -3.06
iter:   3 07:45:40  -997.767516c -3.72  -3.13
iter:   4 07:47:39  -997.767432c -4.99  -3.41
Writing to output.gpw (mode='')

iter:   5 07:49:46  -997.767337c -4.42  -3.37
iter:   6 07:51:50  -997.767323c -4.55  -3.33
iter:   7 07:53:53  -997.767457c -3.82  -3.47
iter:   8 07:55:49  -997.767355c -4.84  -3.78
iter:   9 07:57:53  -997.767328c -3.90  -3.98
Writing to output.gpw (mode='')

iter:  10 08:00:02  -997.767335c -4.63  -3.32
iter:  11 08:02:10  -997.767364c -4.18  -3.54
iter:  12 08:04:17  -997.767392c -4.38  -3.96
iter:  13 08:06:23  -997.767395c -5.13  -4.75c
iter:  14 08:08:28  -997.767392c -5.65  -4.61c
Writing to output.gpw (mode='')

iter:  15 08:10:32  -997.767394c -5.84  -4.56c
iter:  16 08:12:51  -997.767386c -7.11  -4.45c
iter:  17 08:14:54  -997.767383c -6.72  -4.66c
iter:  18 08:16:56  -997.767380c -6.68  -4.91c
iter:  19 08:18:59  -997.767383c -7.59c -5.07c

Converged after 19 iterations.

Dipole moment: (-6.842193, -6.842193, 0.000014) |e|*Ang

Energy contributions relative to reference atoms: (reference = -237723.237536)

Kinetic:        +62.564309
Potential:      -16.442826
External:        +0.000000
XC:            -1043.838975
Entropy (-ST):   -0.146141
Local:           +0.023179
--------------------------
Free energy:   -997.840454
Extrapolated:  -997.767383

Dipole-layer corrected work functions: 4.559049, 4.559016 eV

Showing only first 2 kpts
 Kpt  Band  Eigenvalues  Occupancy
  0    52     -4.94511    1.99911
  0    53     -4.94511    1.99911
  0    54     -4.85330    1.99446
  0    55     -4.85329    1.99445

  1    52     -4.62881    1.60293
  1    53     -4.56470    1.05659
  1    54     -4.52347    0.65860
  1    55     -4.36912    0.04384


Fermi level: -4.55903

No gap
Writing to output.gpw (mode='')


Forces in eV/Ang:
  0 Al    0.00165    0.00165   -0.20405
  1 Al    0.00000   -0.00136   -0.19851
  2 Al   -0.00165    0.00165   -0.20405
  3 Al   -0.00136    0.00000   -0.19851
  4 Al    0.00000    0.00000   -0.20999
  5 Al    0.00136    0.00000   -0.19851
  6 Al    0.00165   -0.00165   -0.20405
  7 Al    0.00000    0.00136   -0.19851
  8 Al   -0.00165   -0.00165   -0.20405
  9 Al    0.00000    0.00000   -0.06226
 10 Al   -0.00224    0.00000   -0.05797
 11 Al    0.00224    0.00000   -0.05797
 12 Al    0.00000   -0.00224   -0.05797
 13 Al    0.00084    0.00084   -0.06194
 14 Al   -0.00084    0.00084   -0.06194
 15 Al    0.00000    0.00224   -0.05797
 16 Al    0.00084   -0.00084   -0.06194
 17 Al   -0.00084   -0.00084   -0.06194
 18 Al   -0.00085   -0.00085    0.06193
 19 Al    0.00000    0.00223    0.05796
 20 Al    0.00085   -0.00085    0.06193
 21 Al    0.00223    0.00000    0.05796
 22 Al    0.00000    0.00000    0.06225
 23 Al   -0.00223    0.00000    0.05796
 24 Al   -0.00085    0.00085    0.06193
 25 Al    0.00000   -0.00223    0.05796
 26 Al    0.00085    0.00085    0.06193
 27 Al    0.00000    0.00000    0.20992
 28 Al    0.00135    0.00000    0.19845
 29 Al   -0.00135    0.00000    0.19845
 30 Al    0.00000    0.00135    0.19845
 31 Al   -0.00166   -0.00166    0.20399
 32 Al    0.00166   -0.00166    0.20399
 33 Al    0.00000   -0.00135    0.19845
 34 Al   -0.00166    0.00166    0.20399
 35 Al    0.00166    0.00166    0.20399

System changes: positions 

Initializing position-dependent things.

Density initialized from wave functions
      .--------------------.  
     /|                    |  
    / |                    |  
   /  |                    |  
  /   |                    |  
 *    |                    |  
 |    |                    |  
 |    |                    |  
 |    |                    |  
 |    |                    |  
 |    |                    |  
 |    |                    |  
 |    |                    |  
 |    |                    |  
 |  Al|    Al     Al       |  
 |    |                    |  
 | Al |  AAl    AAl    Al  |  
 Al   |AAl    AAl    Al    |  
 |    |                    |  
 |  AAl    AAl    AAl      |  
 |    |                    |  
 | Al |  AAl    AAl    Al  |  
 Al   |AAl    AAl    Al    |  
 |    |                    |  
 |   Al     Al     Al      |  
 |    |                    |  
 |    |                    |  
 |    |                    |  
 |    |                    |  
 |    |                    |  
 |    |                    |  
 |    |                    |  
 |    .--------------------.  
 |   /                    /   
 |  /                    /    
 | /                    /     
 |/                    /      
 *--------------------*       

Positions:
   0 Al     1.431995    1.431995    9.987262    ( 0.0000,  0.0000,  0.0000)
   1 Al     4.295674    1.431801    9.987594    ( 0.0000,  0.0000,  0.0000)
   2 Al     7.159352    1.431995    9.987262    ( 0.0000,  0.0000,  0.0000)
   3 Al     1.431801    4.295674    9.987594    ( 0.0000,  0.0000,  0.0000)
   4 Al     4.295674    4.295674    9.986895    ( 0.0000,  0.0000,  0.0000)
   5 Al     7.159546    4.295674    9.987594    ( 0.0000,  0.0000,  0.0000)
   6 Al     1.431995    7.159352    9.987262    ( 0.0000,  0.0000,  0.0000)
   7 Al     4.295674    7.159546    9.987594    ( 0.0000,  0.0000,  0.0000)
   8 Al     7.159352    7.159352    9.987262    ( 0.0000,  0.0000,  0.0000)
   9 Al    -0.000000    0.000000   12.021145    ( 0.0000,  0.0000,  0.0000)
  10 Al     2.863643   -0.000000   12.021416    ( 0.0000,  0.0000,  0.0000)
  11 Al     5.727704    0.000000   12.021416    ( 0.0000,  0.0000,  0.0000)
  12 Al    -0.000000    2.863643   12.021416    ( 0.0000,  0.0000,  0.0000)
  13 Al     2.863834    2.863834   12.021167    ( 0.0000,  0.0000,  0.0000)
  14 Al     5.727514    2.863834   12.021167    ( 0.0000,  0.0000,  0.0000)
  15 Al     0.000000    5.727704   12.021416    ( 0.0000,  0.0000,  0.0000)
  16 Al     2.863834    5.727514   12.021167    ( 0.0000,  0.0000,  0.0000)
  17 Al     5.727514    5.727514   12.021167    ( 0.0000,  0.0000,  0.0000)
  18 Al     1.431839    1.431839   14.053832    ( 0.0000,  0.0000,  0.0000)
  19 Al     4.295674    1.432030   14.053583    ( 0.0000,  0.0000,  0.0000)
  20 Al     7.159508    1.431839   14.053832    ( 0.0000,  0.0000,  0.0000)
  21 Al     1.432030    4.295674   14.053583    ( 0.0000,  0.0000,  0.0000)
  22 Al     4.295674    4.295674   14.053854    ( 0.0000,  0.0000,  0.0000)
  23 Al     7.159317    4.295674   14.053583    ( 0.0000,  0.0000,  0.0000)
  24 Al     1.431839    7.159508   14.053832    ( 0.0000,  0.0000,  0.0000)
  25 Al     4.295674    7.159317   14.053583    ( 0.0000,  0.0000,  0.0000)
  26 Al     7.159508    7.159508   14.053832    ( 0.0000,  0.0000,  0.0000)
  27 Al     0.000000    0.000000   16.088101    ( 0.0000,  0.0000,  0.0000)
  28 Al     2.863872    0.000000   16.087403    ( 0.0000,  0.0000,  0.0000)
  29 Al     5.727476   -0.000000   16.087403    ( 0.0000,  0.0000,  0.0000)
  30 Al     0.000000    2.863872   16.087403    ( 0.0000,  0.0000,  0.0000)
  31 Al     2.863678    2.863678   16.087735    ( 0.0000,  0.0000,  0.0000)
  32 Al     5.727669    2.863678   16.087735    ( 0.0000,  0.0000,  0.0000)
  33 Al     0.000000    5.727476   16.087403    ( 0.0000,  0.0000,  0.0000)
  34 Al     2.863678    5.727669   16.087735    ( 0.0000,  0.0000,  0.0000)
  35 Al     5.727669    5.727669   16.087735    ( 0.0000,  0.0000,  0.0000)

Unit cell:
           periodic     x           y           z      points  spacing
  1. axis:    yes    8.591347    0.000000    0.000000    52     0.1652
  2. axis:    yes    0.000000    8.591347    0.000000    52     0.1652
  3. axis:    no     0.000000    0.000000   26.075000   164     0.1590

  Lengths:   8.591347   8.591347  26.075000
  Angles:   90.000000  90.000000  90.000000

Effective grid spacing dv^(1/3) = 0.1631

     iter     time        total  log10-change:
                         energy  eigst   dens
iter:   1 08:21:32  -997.809041  -1.73
iter:   2 08:23:31  -997.808086  -2.54  -2.52
iter:   3 08:25:38  -997.805377c -2.54  -2.59
iter:   4 08:27:37  -997.805605c -3.89  -2.91
Writing to output.gpw (mode='')

iter:   5 08:29:36  -997.805586c -3.23  -2.86
iter:   6 08:31:41  -997.804872c -3.50  -2.77
iter:   7 08:33:45  -997.804892c -2.77  -2.92
iter:   8 08:35:53  -997.804648c -3.56  -3.35
iter:   9 08:37:52  -997.805328c -2.87  -3.32
Writing to output.gpw (mode='')

iter:  10 08:39:57  -997.804652c -3.45  -2.83
iter:  11 08:41:56  -997.804624c -3.57  -3.12
iter:  12 08:44:07  -997.804664c -3.48  -3.27
iter:  13 08:46:20  -997.804754c -3.82  -3.98
iter:  14 08:48:31  -997.804774c -4.33  -3.90
Writing to output.gpw (mode='')

iter:  15 08:50:43  -997.804734c -5.45  -3.76
iter:  16 08:52:47  -997.804693c -5.07  -3.89
iter:  17 08:54:56  -997.804674c -4.95  -4.16c
iter:  18 08:57:08  -997.804742c -4.94  -4.34c
iter:  19 08:59:20  -997.804693c -5.33  -3.91
Writing to output.gpw (mode='')

iter:  20 09:01:30  -997.804670c -4.77  -4.28c
iter:  21 09:03:38  -997.804685c -6.63  -4.36c
iter:  22 09:05:46  -997.804720c -5.48  -4.57c
iter:  23 09:07:46  -997.804671c -5.00  -4.08c
iter:  24 09:09:59  -997.804675c -6.00  -4.51c
Writing to output.gpw (mode='')

iter:  25 09:12:06  -997.804692c -6.21  -4.58c
iter:  26 09:14:07  -997.804686c -7.25  -4.74c
iter:  27 09:16:06  -997.804683c -6.48  -4.92c
iter:  28 09:18:06  -997.804692c -6.57  -4.93c
iter:  29 09:20:12  -997.804687c -7.44c -4.90c

Converged after 29 iterations.

Dipole moment: (-6.841980, -6.841980, -0.000003) |e|*Ang

Energy contributions relative to reference atoms: (reference = -237723.237536)

Kinetic:        +59.932993
Potential:      -14.537124
External:        +0.000000
XC:            -1043.156622
Entropy (-ST):   -0.144128
Local:           +0.028130
--------------------------
Free energy:   -997.876751
Extrapolated:  -997.804687

Dipole-layer corrected work functions: 4.546036, 4.546043 eV

Showing only first 2 kpts
 Kpt  Band  Eigenvalues  Occupancy
  0    52     -4.93853    1.99922
  0    53     -4.93848    1.99922
  0    54     -4.84689    1.99514
  0    55     -4.84688    1.99514

  1    52     -4.62233    1.64278
  1    53     -4.55156    1.05515
  1    54     -4.49625    0.53952
  1    55     -4.34167    0.03301


Fermi level: -4.54604

No gap
Writing to output.gpw (mode='')


Forces in eV/Ang:
  0 Al    0.00100    0.00100   -0.18203
  1 Al    0.00000   -0.00011   -0.17550
  2 Al   -0.00100    0.00100   -0.18203
  3 Al   -0.00011    0.00000   -0.17550
  4 Al    0.00000    0.00000   -0.18718
  5 Al    0.00011    0.00000   -0.17550
  6 Al    0.00100   -0.00100   -0.18203
  7 Al    0.00000    0.00011   -0.17550
  8 Al   -0.00100   -0.00100   -0.18203
  9 Al    0.00000    0.00000   -0.06293
 10 Al   -0.00225    0.00000   -0.05957
 11 Al    0.00225    0.00000   -0.05957
 12 Al    0.00000   -0.00225   -0.05957
 13 Al    0.00097    0.00097   -0.06271
 14 Al   -0.00097    0.00097   -0.06271
 15 Al    0.00000    0.00225   -0.05957
 16 Al    0.00097   -0.00097   -0.06271
 17 Al   -0.00097   -0.00097   -0.06271
 18 Al   -0.00097   -0.00097    0.06265
 19 Al    0.00000    0.00225    0.05951
 20 Al    0.00097   -0.00097    0.06265
 21 Al    0.00225    0.00000    0.05951
 22 Al    0.00000    0.00000    0.06287
 23 Al   -0.00225    0.00000    0.05951
 24 Al   -0.00097    0.00097    0.06265
 25 Al    0.00000   -0.00225    0.05951
 26 Al    0.00097    0.00097    0.06265
 27 Al    0.00000    0.00000    0.18725
 28 Al    0.00011    0.00000    0.17557
 29 Al   -0.00011    0.00000    0.17557
 30 Al    0.00000    0.00011    0.17557
 31 Al   -0.00100   -0.00100    0.18210
 32 Al    0.00100   -0.00100    0.18210
 33 Al    0.00000   -0.00011    0.17557
 34 Al   -0.00100    0.00100    0.18210
 35 Al    0.00100    0.00100    0.18210

System changes: positions 

Initializing position-dependent things.

Density initialized from wave functions
      .--------------------.  
     /|                    |  
    / |                    |  
   /  |                    |  
  /   |                    |  
 *    |                    |  
 |    |                    |  
 |    |                    |  
 |    |                    |  
 |    |                    |  
 |    |                    |  
 |    |                    |  
 |    |                    |  
 |    |                    |  
 |  Al|    Al     Al       |  
 |    |                    |  
 | Al |  AAl    AAl    Al  |  
 Al   |AAl    AAl    Al    |  
 |    |                    |  
 |  AAl    AAl    AAl      |  
 |    |                    |  
 | Al |  AAl    AAl    Al  |  
 Al   |AAl    AAl    Al    |  
 |    |                    |  
 |   Al     Al     Al      |  
 |    |                    |  
 |    |                    |  
 |    |                    |  
 |    |                    |  
 |    |                    |  
 |    |                    |  
 |    |                    |  
 |    .--------------------.  
 |   /                    /   
 |  /                    /    
 | /                    /     
 |/                    /      
 *--------------------*       

Positions:
   0 Al     1.432066    1.432066    9.977542    ( 0.0000,  0.0000,  0.0000)
   1 Al     4.295674    1.431754    9.978163    ( 0.0000,  0.0000,  0.0000)
   2 Al     7.159281    1.432066    9.977542    ( 0.0000,  0.0000,  0.0000)
   3 Al     1.431754    4.295674    9.978163    ( 0.0000,  0.0000,  0.0000)
   4 Al     4.295674    4.295674    9.976895    ( 0.0000,  0.0000,  0.0000)
   5 Al     7.159593    4.295674    9.978163    ( 0.0000,  0.0000,  0.0000)
   6 Al     1.432066    7.159281    9.977542    ( 0.0000,  0.0000,  0.0000)
   7 Al     4.295674    7.159593    9.978163    ( 0.0000,  0.0000,  0.0000)
   8 Al     7.159281    7.159281    9.977542    ( 0.0000,  0.0000,  0.0000)
   9 Al     0.000000    0.000000   12.018063    ( 0.0000,  0.0000,  0.0000)
  10 Al     2.863532   -0.000000   12.018531    ( 0.0000,  0.0000,  0.0000)
  11 Al     5.727815    0.000000   12.018531    ( 0.0000,  0.0000,  0.0000)
  12 Al    -0.000000    2.863532   12.018531    ( 0.0000,  0.0000,  0.0000)
  13 Al     2.863877    2.863877   12.018099    ( 0.0000,  0.0000,  0.0000)
  14 Al     5.727470    2.863877   12.018099    ( 0.0000,  0.0000,  0.0000)
  15 Al     0.000000    5.727815   12.018531    ( 0.0000,  0.0000,  0.0000)
  16 Al     2.863877    5.727470   12.018099    ( 0.0000,  0.0000,  0.0000)
  17 Al     5.727470    5.727470   12.018099    ( 0.0000,  0.0000,  0.0000)
  18 Al     1.431796    1.431796   14.056899    ( 0.0000,  0.0000,  0.0000)
  19 Al     4.295674    1.432141   14.056467    ( 0.0000,  0.0000,  0.0000)
  20 Al     7.159552    1.431796   14.056899    ( 0.0000,  0.0000,  0.0000)
  21 Al     1.432141    4.295674   14.056467    ( 0.0000,  0.0000,  0.0000)
  22 Al     4.295674    4.295674   14.056935    ( 0.0000,  0.0000,  0.0000)
  23 Al     7.159207    4.295674   14.056467    ( 0.0000,  0.0000,  0.0000)
  24 Al     1.431796    7.159552   14.056899    ( 0.0000,  0.0000,  0.0000)
  25 Al     4.295674    7.159207   14.056467    ( 0.0000,  0.0000,  0.0000)
  26 Al     7.159552    7.159552   14.056899    ( 0.0000,  0.0000,  0.0000)
  27 Al     0.000000    0.000000   16.098100    ( 0.0000,  0.0000,  0.0000)
  28 Al     2.863919    0.000000   16.096832    ( 0.0000,  0.0000,  0.0000)
  29 Al     5.727428    0.000000   16.096832    ( 0.0000,  0.0000,  0.0000)
  30 Al     0.000000    2.863919   16.096832    ( 0.0000,  0.0000,  0.0000)
  31 Al     2.863606    2.863606   16.097453    ( 0.0000,  0.0000,  0.0000)
  32 Al     5.727741    2.863606   16.097453    ( 0.0000,  0.0000,  0.0000)
  33 Al     0.000000    5.727428   16.096832    ( 0.0000,  0.0000,  0.0000)
  34 Al     2.863606    5.727741   16.097453    ( 0.0000,  0.0000,  0.0000)
  35 Al     5.727741    5.727741   16.097453    ( 0.0000,  0.0000,  0.0000)

Unit cell:
           periodic     x           y           z      points  spacing
  1. axis:    yes    8.591347    0.000000    0.000000    52     0.1652
  2. axis:    yes    0.000000    8.591347    0.000000    52     0.1652
  3. axis:    no     0.000000    0.000000   26.075000   164     0.1590

  Lengths:   8.591347   8.591347  26.075000
  Angles:   90.000000  90.000000  90.000000

Effective grid spacing dv^(1/3) = 0.1631

     iter     time        total  log10-change:
                         energy  eigst   dens
iter:   1 09:22:38  -997.842579  -1.73
iter:   2 09:24:37  -997.841576  -2.53  -2.52
iter:   3 09:26:44  -997.838801c -2.47  -2.59
iter:   4 09:28:40  -997.839003c -3.85  -2.93
Writing to output.gpw (mode='')

iter:   5 09:30:33  -997.839255c -3.08  -2.87
iter:   6 09:32:37  -997.838322c -3.42  -2.74
iter:   7 09:34:42  -997.838060c -3.15  -2.90
iter:   8 09:36:51  -997.838106c -3.57  -3.16
iter:   9 09:39:04  -997.838116c -3.63  -3.37
Writing to output.gpw (mode='')

iter:  10 09:41:09  -997.838377c -3.26  -3.79
iter:  11 09:43:11  -997.838150c -4.52  -3.38
iter:  12 09:45:13  -997.838122c -4.41  -3.76
iter:  13 09:47:20  -997.838110c -4.57  -4.04c
iter:  14 09:49:27  -997.838136c -5.97  -4.28c
Writing to output.gpw (mode='')

iter:  15 09:51:34  -997.838131c -6.11  -4.15c
iter:  16 09:53:31  -997.838114c -5.11  -4.24c
iter:  17 09:55:28  -997.838121c -6.34  -4.26c
iter:  18 09:57:30  -997.838167c -5.08  -4.41c
iter:  19 09:59:34  -997.838136c -5.31  -3.85
Writing to output.gpw (mode='')

iter:  20 10:01:44  -997.838115c -4.68  -4.12c
iter:  21 10:03:44  -997.838123c -6.30  -4.57c
iter:  22 10:05:45  -997.838126c -6.45  -5.07c
iter:  23 10:07:46  -997.838119c -6.17  -4.89c
iter:  24 10:09:58  -997.838118c -6.30  -4.86c
Writing to output.gpw (mode='')

iter:  25 10:12:09  -997.838120c -7.65c -4.61c

Converged after 25 iterations.

Dipole moment: (-6.841773, -6.841773, 0.000009) |e|*Ang

Energy contributions relative to reference atoms: (reference = -237723.237536)

Kinetic:        +57.327217
Potential:      -12.650293
External:        +0.000000
XC:            -1042.476073
Entropy (-ST):   -0.142438
Local:           +0.032248
--------------------------
Free energy:   -997.909339
Extrapolated:  -997.838120

Dipole-layer corrected work functions: 4.535195, 4.535173 eV

Showing only first 2 kpts
 Kpt  Band  Eigenvalues  Occupancy
  0    52     -4.93154    1.99928
  0    53     -4.93145    1.99928
  0    54     -4.84113    1.99561
  0    55     -4.84113    1.99561

  1    52     -4.61651    1.67137
  1    53     -4.54078    1.05587
  1    54     -4.46985    0.42608
  1    55     -4.31721    0.02525


Fermi level: -4.53518

No gap

Forces in eV/Ang:
  0 Al    0.00021    0.00021   -0.16152
  1 Al    0.00000    0.00091   -0.15558
  2 Al   -0.00021    0.00021   -0.16152
  3 Al    0.00091    0.00000   -0.15558
  4 Al    0.00000    0.00000   -0.16596
  5 Al   -0.00091    0.00000   -0.15558
  6 Al    0.00021   -0.00021   -0.16152
  7 Al    0.00000   -0.00091   -0.15558
  8 Al   -0.00021   -0.00021   -0.16152
  9 Al    0.00000    0.00000   -0.06225
 10 Al   -0.00223    0.00000   -0.05955
 11 Al    0.00223    0.00000   -0.05955
 12 Al    0.00000   -0.00223   -0.05955
 13 Al    0.00101    0.00101   -0.06191
 14 Al   -0.00101    0.00101   -0.06191
 15 Al    0.00000    0.00223   -0.05955
 16 Al    0.00101   -0.00101   -0.06191
 17 Al   -0.00101   -0.00101   -0.06191
 18 Al   -0.00102   -0.00102    0.06189
 19 Al    0.00000    0.00222    0.05955
 20 Al    0.00102   -0.00102    0.06189
 21 Al    0.00222    0.00000    0.05955
 22 Al    0.00000    0.00000    0.06223
 23 Al   -0.00222    0.00000    0.05955
 24 Al   -0.00102    0.00102    0.06189
 25 Al    0.00000   -0.00222    0.05955
 26 Al    0.00102    0.00102    0.06189
 27 Al    0.00000    0.00000    0.16588
 28 Al   -0.00092    0.00000    0.15554
 29 Al    0.00092    0.00000    0.15554
 30 Al   -0.00000   -0.00092    0.15554
 31 Al   -0.00021   -0.00021    0.16151
 32 Al    0.00021   -0.00021    0.16151
 33 Al   -0.00000    0.00092    0.15554
 34 Al   -0.00021    0.00021    0.16151
 35 Al    0.00021    0.00021    0.16151

System changes: positions 

Initializing position-dependent things.

Density initialized from wave functions
      .--------------------.  
     /|                    |  
    / |                    |  
   /  |                    |  
  /   |                    |  
 *    |                    |  
 |    |                    |  
 |    |                    |  
 |    |                    |  
 |    |                    |  
 |    |                    |  
 |    |                    |  
 |    |                    |  
 |    |                    |  
 |  Al|    Al     Al       |  
 |    |                    |  
 | Al |  AAl    AAl    Al  |  
 Al   |AAl    AAl    Al    |  
 |    |                    |  
 |  AAl    AAl    AAl      |  
 |    |                    |  
 | Al |  AAl    AAl    Al  |  
 Al   |AAl    AAl    Al    |  
 |    |                    |  
 |   Al     Al     Al      |  
 |    |                    |  
 |    |                    |  
 |    |                    |  
 |    |                    |  
 |    |                    |  
 |    |                    |  
 |    |                    |  
 |    .--------------------.  
 |   /                    /   
 |  /                    /    
 | /                    /     
 |/                    /      
 *--------------------*       

Positions:
   0 Al     1.432127    1.432127    9.967821    ( 0.0000,  0.0000,  0.0000)
   1 Al     4.295674    1.431722    9.968732    ( 0.0000,  0.0000,  0.0000)
   2 Al     7.159221    1.432127    9.967821    ( 0.0000,  0.0000,  0.0000)
   3 Al     1.431722    4.295674    9.968732    ( 0.0000,  0.0000,  0.0000)
   4 Al     4.295674    4.295674    9.966895    ( 0.0000,  0.0000,  0.0000)
   5 Al     7.159625    4.295674    9.968732    ( 0.0000,  0.0000,  0.0000)
   6 Al     1.432127    7.159221    9.967821    ( 0.0000,  0.0000,  0.0000)
   7 Al     4.295674    7.159625    9.968732    ( 0.0000,  0.0000,  0.0000)
   8 Al     7.159221    7.159221    9.967821    ( 0.0000,  0.0000,  0.0000)
   9 Al     0.000000    0.000000   12.014880    ( 0.0000,  0.0000,  0.0000)
  10 Al     2.863418   -0.000000   12.015540    ( 0.0000,  0.0000,  0.0000)
  11 Al     5.727930    0.000000   12.015540    ( 0.0000,  0.0000,  0.0000)
  12 Al    -0.000000    2.863418   12.015540    ( 0.0000,  0.0000,  0.0000)
  13 Al     2.863923    2.863923   12.014932    ( 0.0000,  0.0000,  0.0000)
  14 Al     5.727424    2.863923   12.014932    ( 0.0000,  0.0000,  0.0000)
  15 Al    -0.000000    5.727930   12.015540    ( 0.0000,  0.0000,  0.0000)
  16 Al     2.863923    5.727424   12.014932    ( 0.0000,  0.0000,  0.0000)
  17 Al     5.727424    5.727424   12.014932    ( 0.0000,  0.0000,  0.0000)
  18 Al     1.431749    1.431749   14.060065    ( 0.0000,  0.0000,  0.0000)
  19 Al     4.295674    1.432255   14.059457    ( 0.0000,  0.0000,  0.0000)
  20 Al     7.159598    1.431749   14.060065    ( 0.0000,  0.0000,  0.0000)
  21 Al     1.432255    4.295674   14.059457    ( 0.0000,  0.0000,  0.0000)
  22 Al     4.295674    4.295674   14.060118    ( 0.0000,  0.0000,  0.0000)
  23 Al     7.159093    4.295674   14.059457    ( 0.0000,  0.0000,  0.0000)
  24 Al     1.431749    7.159598   14.060065    ( 0.0000,  0.0000,  0.0000)
  25 Al     4.295674    7.159093   14.059457    ( 0.0000,  0.0000,  0.0000)
  26 Al     7.159598    7.159598   14.060065    ( 0.0000,  0.0000,  0.0000)
  27 Al     0.000000    0.000000   16.108097    ( 0.0000,  0.0000,  0.0000)
  28 Al     2.863950    0.000000   16.106261    ( 0.0000,  0.0000,  0.0000)
  29 Al     5.727397    0.000000   16.106261    ( 0.0000,  0.0000,  0.0000)
  30 Al     0.000000    2.863950   16.106261    ( 0.0000,  0.0000,  0.0000)
  31 Al     2.863546    2.863546   16.107173    ( 0.0000,  0.0000,  0.0000)
  32 Al     5.727802    2.863546   16.107173    ( 0.0000,  0.0000,  0.0000)
  33 Al     0.000000    5.727397   16.106261    ( 0.0000,  0.0000,  0.0000)
  34 Al     2.863546    5.727802   16.107173    ( 0.0000,  0.0000,  0.0000)
  35 Al     5.727802    5.727802   16.107173    ( 0.0000,  0.0000,  0.0000)

Unit cell:
           periodic     x           y           z      points  spacing
  1. axis:    yes    8.591347    0.000000    0.000000    52     0.1652
  2. axis:    yes    0.000000    8.591347    0.000000    52     0.1652
  3. axis:    no     0.000000    0.000000   26.075000   164     0.1590

  Lengths:   8.591347   8.591347  26.075000
  Angles:   90.000000  90.000000  90.000000

Effective grid spacing dv^(1/3) = 0.1631

     iter     time        total  log10-change:
                         energy  eigst   dens
iter:   1 10:14:37  -997.872250  -1.73
iter:   2 10:16:37  -997.871299  -2.54  -2.53
iter:   3 10:18:39  -997.868551c -2.41  -2.60
iter:   4 10:20:41  -997.868725c -3.85  -2.95
Writing to output.gpw (mode='')

iter:   5 10:22:47  -997.869285c -2.96  -2.89
iter:   6 10:24:56  -997.868161c -3.38  -2.72
iter:   7 10:27:03  -997.867871c -2.85  -2.89
iter:   8 10:29:06  -997.867976c -4.07  -3.43
iter:   9 10:31:01  -997.868079c -4.18  -3.15
Writing to output.gpw (mode='')

iter:  10 10:33:02  -997.867970c -3.44  -3.06
iter:  11 10:35:08  -997.867947c -4.79  -3.68
iter:  12 10:37:08  -997.868322c -3.44  -3.52
iter:  13 10:39:16  -997.868042c -4.37  -3.23
iter:  14 10:41:28  -997.868051c -4.86  -3.46
Writing to output.gpw (mode='')

iter:  15 10:43:31  -997.867946c -4.32  -3.49
iter:  16 10:45:22  -997.867967c -5.16  -3.89
iter:  17 10:47:26  -997.867966c -5.42  -3.88
iter:  18 10:49:34  -997.867931c -4.77  -3.94
iter:  19 10:51:40  -997.867932c -5.65  -4.73c
Writing to output.gpw (mode='')

iter:  20 10:53:43  -997.867929c -5.82  -4.86c
iter:  21 10:55:48  -997.867928c -6.26  -4.95c
iter:  22 10:57:52  -997.867932c -7.06  -4.83c
iter:  23 10:59:55  -997.867933c -7.49c -5.00c

Converged after 23 iterations.

Dipole moment: (-6.841570, -6.841570, 0.000005) |e|*Ang

Energy contributions relative to reference atoms: (reference = -237723.237536)

Kinetic:        +54.799816
Potential:      -10.830626
External:        +0.000000
XC:            -1041.801909
Entropy (-ST):   -0.140944
Local:           +0.035258
--------------------------
Free energy:   -997.938405
Extrapolated:  -997.867933

Dipole-layer corrected work functions: 4.525659, 4.525646 eV

Showing only first 2 kpts
 Kpt  Band  Eigenvalues  Occupancy
  0    52     -4.92325    1.99930
  0    53     -4.92309    1.99929
  0    54     -4.83507    1.99590
  0    55     -4.83504    1.99590

  1    52     -4.61037    1.68957
  1    53     -4.53142    1.05759
  1    54     -4.44314    0.32215
  1    55     -4.30933    0.02608


Fermi level: -4.52565

No gap
Writing to output.gpw (mode='')


Forces in eV/Ang:
  0 Al   -0.00094   -0.00094   -0.14003
  1 Al    0.00000    0.00161   -0.13600
  2 Al    0.00094   -0.00094   -0.14003
  3 Al    0.00161    0.00000   -0.13600
  4 Al   -0.00000    0.00000   -0.14151
  5 Al   -0.00161    0.00000   -0.13600
  6 Al   -0.00094    0.00094   -0.14003
  7 Al    0.00000   -0.00161   -0.13600
  8 Al    0.00094    0.00094   -0.14003
  9 Al    0.00000    0.00000   -0.06057
 10 Al   -0.00216    0.00000   -0.05843
 11 Al    0.00216    0.00000   -0.05843
 12 Al    0.00000   -0.00216   -0.05843
 13 Al    0.00104    0.00104   -0.05991
 14 Al   -0.00104    0.00104   -0.05991
 15 Al    0.00000    0.00216   -0.05843
 16 Al    0.00104   -0.00104   -0.05991
 17 Al   -0.00104   -0.00104   -0.05991
 18 Al   -0.00103   -0.00103    0.05995
 19 Al    0.00000    0.00216    0.05845
 20 Al    0.00103   -0.00103    0.05995
 21 Al    0.00216    0.00000    0.05845
 22 Al   -0.00000    0.00000    0.06054
 23 Al   -0.00216    0.00000    0.05845
 24 Al   -0.00103    0.00103    0.05995
 25 Al    0.00000   -0.00216    0.05845
 26 Al    0.00103    0.00103    0.05995
 27 Al    0.00000    0.00000    0.14146
 28 Al   -0.00161    0.00000    0.13594
 29 Al    0.00161    0.00000    0.13594
 30 Al    0.00000   -0.00161    0.13594
 31 Al    0.00093    0.00093    0.14001
 32 Al   -0.00093    0.00093    0.14001
 33 Al    0.00000    0.00161    0.13594
 34 Al    0.00093   -0.00093    0.14001
 35 Al   -0.00093   -0.00093    0.14001

System changes: positions 

Initializing position-dependent things.

Density initialized from wave functions
      .--------------------.  
     /|                    |  
    / |                    |  
   /  |                    |  
  /   |                    |  
 *    |                    |  
 |    |                    |  
 |    |                    |  
 |    |                    |  
 |    |                    |  
 |    |                    |  
 |    |                    |  
 |    |                    |  
 |    |                    |  
 |  Al|    Al     Al       |  
 |    |                    |  
 | Al |  AAl    AAl    Al  |  
 Al   |AAl    AAl    Al    |  
 |    |                    |  
 |  AAl    AAl    AAl      |  
 |    |                    |  
 | Al |  AAl    AAl    Al  |  
 Al   |AAl    AAl    Al    |  
 |    |                    |  
 |   Al     Al     Al      |  
 |    |                    |  
 |    |                    |  
 |    |                    |  
 |    |                    |  
 |    |                    |  
 |    |                    |  
 |    |                    |  
 |    .--------------------.  
 |   /                    /   
 |  /                    /    
 | /                    /     
 |/                    /      
 *--------------------*       

Positions:
   0 Al     1.432169    1.432169    9.958061    ( 0.0000,  0.0000,  0.0000)
   1 Al     4.295674    1.431704    9.959246    ( 0.0000,  0.0000,  0.0000)
   2 Al     7.159178    1.432169    9.958061    ( 0.0000,  0.0000,  0.0000)
   3 Al     1.431704    4.295674    9.959246    ( 0.0000,  0.0000,  0.0000)
   4 Al     4.295674    4.295674    9.956895    ( 0.0000,  0.0000,  0.0000)
   5 Al     7.159644    4.295674    9.959246    ( 0.0000,  0.0000,  0.0000)
   6 Al     1.432169    7.159178    9.958061    ( 0.0000,  0.0000,  0.0000)
   7 Al     4.295674    7.159644    9.959246    ( 0.0000,  0.0000,  0.0000)
   8 Al     7.159178    7.159178    9.958061    ( 0.0000,  0.0000,  0.0000)
   9 Al     0.000000    0.000000   12.011579    ( 0.0000,  0.0000,  0.0000)
  10 Al     2.863299   -0.000000   12.012430    ( 0.0000,  0.0000,  0.0000)
  11 Al     5.728048    0.000000   12.012430    ( 0.0000,  0.0000,  0.0000)
  12 Al    -0.000000    2.863299   12.012430    ( 0.0000,  0.0000,  0.0000)
  13 Al     2.863972    2.863972   12.011654    ( 0.0000,  0.0000,  0.0000)
  14 Al     5.727376    2.863972   12.011654    ( 0.0000,  0.0000,  0.0000)
  15 Al     0.000000    5.728048   12.012430    ( 0.0000,  0.0000,  0.0000)
  16 Al     2.863972    5.727376   12.011654    ( 0.0000,  0.0000,  0.0000)
  17 Al     5.727376    5.727376   12.011654    ( 0.0000,  0.0000,  0.0000)
  18 Al     1.431700    1.431700   14.063343    ( 0.0000,  0.0000,  0.0000)
  19 Al     4.295674    1.432373   14.062567    ( 0.0000,  0.0000,  0.0000)
  20 Al     7.159647    1.431700   14.063343    ( 0.0000,  0.0000,  0.0000)
  21 Al     1.432373    4.295674   14.062567    ( 0.0000,  0.0000,  0.0000)
  22 Al     4.295674    4.295674   14.063417    ( 0.0000,  0.0000,  0.0000)
  23 Al     7.158975    4.295674   14.062567    ( 0.0000,  0.0000,  0.0000)
  24 Al     1.431700    7.159647   14.063343    ( 0.0000,  0.0000,  0.0000)
  25 Al     4.295674    7.158975   14.062567    ( 0.0000,  0.0000,  0.0000)
  26 Al     7.159647    7.159647   14.063343    ( 0.0000,  0.0000,  0.0000)
  27 Al    -0.000000    0.000000   16.118094    ( 0.0000,  0.0000,  0.0000)
  28 Al     2.863969    0.000000   16.115744    ( 0.0000,  0.0000,  0.0000)
  29 Al     5.727379    0.000000   16.115744    ( 0.0000,  0.0000,  0.0000)
  30 Al     0.000000    2.863969   16.115744    ( 0.0000,  0.0000,  0.0000)
  31 Al     2.863503    2.863503   16.116930    ( 0.0000,  0.0000,  0.0000)
  32 Al     5.727845    2.863503   16.116930    ( 0.0000,  0.0000,  0.0000)
  33 Al     0.000000    5.727379   16.115744    ( 0.0000,  0.0000,  0.0000)
  34 Al     2.863503    5.727845   16.116930    ( 0.0000,  0.0000,  0.0000)
  35 Al     5.727845    5.727845   16.116930    ( 0.0000,  0.0000,  0.0000)

Unit cell:
           periodic     x           y           z      points  spacing
  1. axis:    yes    8.591347    0.000000    0.000000    52     0.1652
  2. axis:    yes    0.000000    8.591347    0.000000    52     0.1652
  3. axis:    no     0.000000    0.000000   26.075000   164     0.1590

  Lengths:   8.591347   8.591347  26.075000
  Angles:   90.000000  90.000000  90.000000

Effective grid spacing dv^(1/3) = 0.1631

     iter     time        total  log10-change:
                         energy  eigst   dens
iter:   1 11:02:23  -997.899069  -1.72
iter:   2 11:04:29  -997.897889  -2.53  -2.51
iter:   3 11:06:32  -997.894727c -2.24  -2.58
iter:   4 11:08:28  -997.894934c -3.67  -2.95
Writing to output.gpw (mode='')

iter:   5 11:10:44  -997.896265c -2.68  -2.90
iter:   6 11:12:48  -997.894493c -3.29  -2.65
iter:   7 11:14:50  -997.893997c -2.73  -2.84
iter:   8 11:17:00  -997.894166c -4.39  -3.31
iter:   9 11:19:03  -997.894249c -4.40  -3.15
Writing to output.gpw (mode='')

iter:  10 11:21:08  -997.894138c -3.51  -3.08
iter:  11 11:23:14  -997.894131c -4.82  -3.79
iter:  12 11:25:16  -997.894311c -3.60  -3.63
iter:  13 11:27:19  -997.894215c -5.19  -3.39
iter:  14 11:29:21  -997.894118c -4.31  -3.52
Writing to output.gpw (mode='')

iter:  15 11:31:24  -997.894074c -4.17  -3.94
iter:  16 11:33:22  -997.894161c -4.38  -3.86
iter:  17 11:35:31  -997.894132c -5.83  -3.89
iter:  18 11:37:36  -997.894100c -5.03  -4.07c
iter:  19 11:39:40  -997.894105c -6.08  -4.64c
Writing to output.gpw (mode='')

iter:  20 11:41:48  -997.894103c -6.20  -4.70c
iter:  21 11:43:50  -997.894107c -6.99  -4.80c
iter:  22 11:45:51  -997.894105c -6.81  -4.84c
iter:  23 11:47:52  -997.894104c -6.55  -4.89c
iter:  24 11:49:58  -997.894114c -6.38  -4.85c
Writing to output.gpw (mode='')

iter:  25 11:52:07  -997.894110c -6.99  -4.72c
iter:  26 11:54:11  -997.894107c -6.52  -5.08c
iter:  27 11:56:25  -997.894107c -7.25  -5.34c
iter:  28 11:58:29  -997.894108c -8.54c -5.30c

Converged after 28 iterations.

Dipole moment: (-6.841369, -6.841369, 0.000002) |e|*Ang

Energy contributions relative to reference atoms: (reference = -237723.237536)

Kinetic:        +52.298076
Potential:       -9.033244
External:        +0.000000
XC:            -1041.126904
Entropy (-ST):   -0.139712
Local:           +0.037820
--------------------------
Free energy:   -997.963964
Extrapolated:  -997.894108

Dipole-layer corrected work functions: 4.518027, 4.518023 eV

Showing only first 2 kpts
 Kpt  Band  Eigenvalues  Occupancy
  0    52     -4.91428    1.99928
  0    53     -4.91403    1.99927
  0    54     -4.82925    1.99605
  0    55     -4.82916    1.99604

  1    52     -4.60445    1.69844
  1    53     -4.52401    1.05978
  1    54     -4.41666    0.23272
  1    55     -4.30248    0.02649


Fermi level: -4.51803

No gap
Writing to output.gpw (mode='')


Forces in eV/Ang:
  0 Al   -0.00202   -0.00202   -0.11794
  1 Al    0.00000    0.00207   -0.11594
  2 Al    0.00202   -0.00202   -0.11794
  3 Al    0.00207    0.00000   -0.11594
  4 Al    0.00000    0.00000   -0.11638
  5 Al   -0.00207    0.00000   -0.11594
  6 Al   -0.00202    0.00202   -0.11794
  7 Al    0.00000   -0.00207   -0.11594
  8 Al    0.00202    0.00202   -0.11794
  9 Al    0.00000    0.00000   -0.05815
 10 Al   -0.00211    0.00000   -0.05690
 11 Al    0.00211    0.00000   -0.05690
 12 Al    0.00000   -0.00211   -0.05690
 13 Al    0.00095    0.00095   -0.05723
 14 Al   -0.00095    0.00095   -0.05723
 15 Al   -0.00000    0.00211   -0.05690
 16 Al    0.00095   -0.00095   -0.05723
 17 Al   -0.00095   -0.00095   -0.05723
 18 Al   -0.00094   -0.00094    0.05721
 19 Al   -0.00000    0.00212    0.05689
 20 Al    0.00094   -0.00094    0.05721
 21 Al    0.00212    0.00000    0.05689
 22 Al    0.00000    0.00000    0.05816
 23 Al   -0.00212    0.00000    0.05689
 24 Al   -0.00094    0.00094    0.05721
 25 Al    0.00000   -0.00212    0.05689
 26 Al    0.00094    0.00094    0.05721
 27 Al    0.00000    0.00000    0.11645
 28 Al   -0.00207    0.00000    0.11598
 29 Al    0.00207    0.00000    0.11598
 30 Al    0.00000   -0.00207    0.11598
 31 Al    0.00202    0.00202    0.11796
 32 Al   -0.00202    0.00202    0.11796
 33 Al    0.00000    0.00207    0.11598
 34 Al    0.00202   -0.00202    0.11796
 35 Al   -0.00202   -0.00202    0.11796

System changes: positions 

Initializing position-dependent things.

Density initialized from wave functions
      .--------------------.  
     /|                    |  
    / |                    |  
   /  |                    |  
  /   |                    |  
 *    |                    |  
 |    |                    |  
 |    |                    |  
 |    |                    |  
 |    |                    |  
 |    |                    |  
 |    |                    |  
 |    |                    |  
 |    |                    |  
 |  Al|    Al     Al       |  
 |    |                    |  
 | Al |  AAl    AAl    Al  |  
 Al   |AAl    AAl    Al    |  
 |    |                    |  
 |  AAl    AAl    AAl      |  
 |    |                    |  
 | Al |  AAl    AAl    Al  |  
 Al   |AAl    AAl    Al    |  
 |    |                    |  
 |   Al     Al     Al      |  
 |    |                    |  
 |    |                    |  
 |    |                    |  
 |    |                    |  
 |    |                    |  
 |    |                    |  
 |    |                    |  
 |    .--------------------.  
 |   /                    /   
 |  /                    /    
 | /                    /     
 |/                    /      
 *--------------------*       

Positions:
   0 Al     1.432192    1.432192    9.948257    ( 0.0000,  0.0000,  0.0000)
   1 Al     4.295674    1.431696    9.949693    ( 0.0000,  0.0000,  0.0000)
   2 Al     7.159155    1.432192    9.948257    ( 0.0000,  0.0000,  0.0000)
   3 Al     1.431696    4.295674    9.949693    ( 0.0000,  0.0000,  0.0000)
   4 Al     4.295674    4.295674    9.946895    ( 0.0000,  0.0000,  0.0000)
   5 Al     7.159651    4.295674    9.949693    ( 0.0000,  0.0000,  0.0000)
   6 Al     1.432192    7.159155    9.948257    ( 0.0000,  0.0000,  0.0000)
   7 Al     4.295674    7.159651    9.949693    ( 0.0000,  0.0000,  0.0000)
   8 Al     7.159155    7.159155    9.948257    ( 0.0000,  0.0000,  0.0000)
   9 Al    -0.000000   -0.000000   12.008149    ( 0.0000,  0.0000,  0.0000)
  10 Al     2.863175   -0.000000   12.009182    ( 0.0000,  0.0000,  0.0000)
  11 Al     5.728172    0.000000   12.009182    ( 0.0000,  0.0000,  0.0000)
  12 Al    -0.000000    2.863175   12.009182    ( 0.0000,  0.0000,  0.0000)
  13 Al     2.864022    2.864022   12.008253    ( 0.0000,  0.0000,  0.0000)
  14 Al     5.727326    2.864022   12.008253    ( 0.0000,  0.0000,  0.0000)
  15 Al     0.000000    5.728172   12.009182    ( 0.0000,  0.0000,  0.0000)
  16 Al     2.864022    5.727326   12.008253    ( 0.0000,  0.0000,  0.0000)
  17 Al     5.727326    5.727326   12.008253    ( 0.0000,  0.0000,  0.0000)
  18 Al     1.431650    1.431650   14.066744    ( 0.0000,  0.0000,  0.0000)
  19 Al     4.295674    1.432496   14.065815    ( 0.0000,  0.0000,  0.0000)
  20 Al     7.159697    1.431650   14.066744    ( 0.0000,  0.0000,  0.0000)
  21 Al     1.432496    4.295674   14.065815    ( 0.0000,  0.0000,  0.0000)
  22 Al     4.295674    4.295674   14.066847    ( 0.0000,  0.0000,  0.0000)
  23 Al     7.158851    4.295674   14.065815    ( 0.0000,  0.0000,  0.0000)
  24 Al     1.431650    7.159697   14.066744    ( 0.0000,  0.0000,  0.0000)
  25 Al     4.295674    7.158851   14.065815    ( 0.0000,  0.0000,  0.0000)
  26 Al     7.159697    7.159697   14.066744    ( 0.0000,  0.0000,  0.0000)
  27 Al    -0.000000    0.000000   16.128093    ( 0.0000,  0.0000,  0.0000)
  28 Al     2.863976   -0.000000   16.125296    ( 0.0000,  0.0000,  0.0000)
  29 Al     5.727371    0.000000   16.125296    ( 0.0000,  0.0000,  0.0000)
  30 Al     0.000000    2.863976   16.125296    ( 0.0000,  0.0000,  0.0000)
  31 Al     2.863479    2.863479   16.126733    ( 0.0000,  0.0000,  0.0000)
  32 Al     5.727868    2.863479   16.126733    ( 0.0000,  0.0000,  0.0000)
  33 Al     0.000000    5.727371   16.125296    ( 0.0000,  0.0000,  0.0000)
  34 Al     2.863479    5.727868   16.126733    ( 0.0000,  0.0000,  0.0000)
  35 Al     5.727868    5.727868   16.126733    ( 0.0000,  0.0000,  0.0000)

Unit cell:
           periodic     x           y           z      points  spacing
  1. axis:    yes    8.591347    0.000000    0.000000    52     0.1652
  2. axis:    yes    0.000000    8.591347    0.000000    52     0.1652
  3. axis:    no     0.000000    0.000000   26.075000   164     0.1590

  Lengths:   8.591347   8.591347  26.075000
  Angles:   90.000000  90.000000  90.000000

Effective grid spacing dv^(1/3) = 0.1631

     iter     time        total  log10-change:
                         energy  eigst   dens
iter:   1 12:00:57  -997.922111  -1.71
iter:   2 12:03:08  -997.920695  -2.53  -2.50
iter:   3 12:05:10  -997.916926c -2.10  -2.56
iter:   4 12:07:15  -997.917269c -3.51  -2.95
Writing to output.gpw (mode='')

iter:   5 12:09:22  -997.919431c -2.48  -2.90
iter:   6 12:11:21  -997.916935c -3.20  -2.60
iter:   7 12:13:28  -997.916267c -2.71  -2.80
iter:   8 12:15:41  -997.916595c -3.69  -3.12
iter:   9 12:17:47  -997.916465c -3.09  -3.11
Writing to output.gpw (mode='')

iter:  10 12:19:36  -997.916409c -4.37  -3.61
iter:  11 12:21:43  -997.916383c -5.01  -3.74
iter:  12 12:23:38  -997.916368c -4.87  -3.86
iter:  13 12:25:44  -997.916350c -4.56  -4.11c
iter:  14 12:27:53  -997.916383c -4.41  -3.91
Writing to output.gpw (mode='')

iter:  15 12:30:01  -997.916390c -5.10  -3.85
iter:  16 12:32:13  -997.916357c -4.76  -3.80
iter:  17 12:34:19  -997.916356c -5.10  -4.73c
iter:  18 12:36:17  -997.916358c -6.10  -4.80c
iter:  19 12:38:19  -997.916360c -7.25  -5.01c
Writing to output.gpw (mode='')

iter:  20 12:40:37  -997.916359c -6.29  -5.02c
iter:  21 12:42:41  -997.916360c -7.09  -4.76c
iter:  22 12:44:43  -997.916362c -6.32  -4.79c
iter:  23 12:46:45  -997.916361c -7.50c -4.96c

Converged after 23 iterations.

Dipole moment: (-6.841163, -6.841163, 0.000000) |e|*Ang

Energy contributions relative to reference atoms: (reference = -237723.237536)

Kinetic:        +49.757125
Potential:       -7.198179
External:        +0.000000
XC:            -1040.447676
Entropy (-ST):   -0.139019
Local:           +0.041879
--------------------------
Free energy:   -997.985870
Extrapolated:  -997.916361

Dipole-layer corrected work functions: 4.511499, 4.511498 eV

Showing only first 2 kpts
 Kpt  Band  Eigenvalues  Occupancy
  0    52     -4.90407    1.99922
  0    53     -4.90370    1.99922
  0    54     -4.82292    1.99606
  0    55     -4.82274    1.99605

  1    52     -4.59801    1.69889
  1    53     -4.51790    1.06390
  1    54     -4.38976    0.16111
  1    55     -4.29570    0.02636


Fermi level: -4.51150

No gap
Writing to output.gpw (mode='')


Forces in eV/Ang:
  0 Al   -0.00272   -0.00272   -0.09605
  1 Al    0.00000    0.00268   -0.09568
  2 Al    0.00272   -0.00272   -0.09605
  3 Al    0.00268    0.00000   -0.09568
  4 Al    0.00000    0.00000   -0.09360
  5 Al   -0.00268    0.00000   -0.09568
  6 Al   -0.00272    0.00272   -0.09605
  7 Al   -0.00000   -0.00268   -0.09568
  8 Al    0.00272    0.00272   -0.09605
  9 Al    0.00000    0.00000   -0.05448
 10 Al   -0.00182    0.00000   -0.05425
 11 Al    0.00182    0.00000   -0.05425
 12 Al   -0.00000   -0.00182   -0.05425
 13 Al    0.00077    0.00077   -0.05332
 14 Al   -0.00077    0.00077   -0.05332
 15 Al   -0.00000    0.00182   -0.05425
 16 Al    0.00077   -0.00077   -0.05332
 17 Al   -0.00077   -0.00077   -0.05332
 18 Al   -0.00075   -0.00075    0.05328
 19 Al    0.00000    0.00184    0.05423
 20 Al    0.00075   -0.00075    0.05328
 21 Al    0.00184    0.00000    0.05423
 22 Al    0.00000    0.00000    0.05446
 23 Al   -0.00184    0.00000    0.05423
 24 Al   -0.00075    0.00075    0.05328
 25 Al    0.00000   -0.00184    0.05423
 26 Al    0.00075    0.00075    0.05328
 27 Al    0.00000    0.00000    0.09359
 28 Al   -0.00269    0.00000    0.09567
 29 Al    0.00269    0.00000    0.09567
 30 Al    0.00000   -0.00269    0.09567
 31 Al    0.00272    0.00272    0.09609
 32 Al   -0.00272    0.00272    0.09609
 33 Al   -0.00000    0.00269    0.09567
 34 Al    0.00272   -0.00272    0.09609
 35 Al   -0.00272   -0.00272    0.09609

System changes: positions 

Initializing position-dependent things.

Density initialized from wave functions
      .--------------------.  
     /|                    |  
    / |                    |  
   /  |                    |  
  /   |                    |  
 *    |                    |  
 |    |                    |  
 |    |                    |  
 |    |                    |  
 |    |                    |  
 |    |                    |  
 |    |                    |  
 |    |                    |  
 |    |                    |  
 |  Al|    Al     Al       |  
 |    |                    |  
 | Al |  AAl    AAl    Al  |  
 Al   |AAl    AAl    Al    |  
 |    |                    |  
 |  AAl    AAl    AAl      |  
 |    |                    |  
 | Al |  AAl    AAl    Al  |  
 Al   |AAl    AAl    Al    |  
 |    |                    |  
 |   Al     Al     Al      |  
 |    |                    |  
 |    |                    |  
 |    |                    |  
 |    |                    |  
 |    |                    |  
 |    |                    |  
 |    |                    |  
 |    .--------------------.  
 |   /                    /   
 |  /                    /    
 | /                    /     
 |/                    /      
 *--------------------*       

Positions:
   0 Al     1.432198    1.432198    9.938434    ( 0.0000,  0.0000,  0.0000)
   1 Al     4.295674    1.431704    9.940100    ( 0.0000,  0.0000,  0.0000)
   2 Al     7.159150    1.432198    9.938434    ( 0.0000,  0.0000,  0.0000)
   3 Al     1.431704    4.295674    9.940100    ( 0.0000,  0.0000,  0.0000)
   4 Al     4.295674    4.295674    9.936895    ( 0.0000,  0.0000,  0.0000)
   5 Al     7.159643    4.295674    9.940100    ( 0.0000,  0.0000,  0.0000)
   6 Al     1.432198    7.159150    9.938434    ( 0.0000,  0.0000,  0.0000)
   7 Al     4.295674    7.159643    9.940100    ( 0.0000,  0.0000,  0.0000)
   8 Al     7.159150    7.159150    9.938434    ( 0.0000,  0.0000,  0.0000)
   9 Al    -0.000000   -0.000000   12.004598    ( 0.0000,  0.0000,  0.0000)
  10 Al     2.863050   -0.000000   12.005800    ( 0.0000,  0.0000,  0.0000)
  11 Al     5.728297    0.000000   12.005800    ( 0.0000,  0.0000,  0.0000)
  12 Al    -0.000000    2.863050   12.005800    ( 0.0000,  0.0000,  0.0000)
  13 Al     2.864072    2.864072   12.004737    ( 0.0000,  0.0000,  0.0000)
  14 Al     5.727276    2.864072   12.004737    ( 0.0000,  0.0000,  0.0000)
  15 Al     0.000000    5.728297   12.005800    ( 0.0000,  0.0000,  0.0000)
  16 Al     2.864072    5.727276   12.004737    ( 0.0000,  0.0000,  0.0000)
  17 Al     5.727276    5.727276   12.004737    ( 0.0000,  0.0000,  0.0000)
  18 Al     1.431600    1.431600   14.070258    ( 0.0000,  0.0000,  0.0000)
  19 Al     4.295674    1.432622   14.069196    ( 0.0000,  0.0000,  0.0000)
  20 Al     7.159747    1.431600   14.070258    ( 0.0000,  0.0000,  0.0000)
  21 Al     1.432622    4.295674   14.069196    ( 0.0000,  0.0000,  0.0000)
  22 Al     4.295674    4.295674   14.070397    ( 0.0000,  0.0000,  0.0000)
  23 Al     7.158726    4.295674   14.069196    ( 0.0000,  0.0000,  0.0000)
  24 Al     1.431600    7.159747   14.070258    ( 0.0000,  0.0000,  0.0000)
  25 Al     4.295674    7.158726   14.069196    ( 0.0000,  0.0000,  0.0000)
  26 Al     7.159747    7.159747   14.070258    ( 0.0000,  0.0000,  0.0000)
  27 Al    -0.000000    0.000000   16.138091    ( 0.0000,  0.0000,  0.0000)
  28 Al     2.863967   -0.000000   16.134886    ( 0.0000,  0.0000,  0.0000)
  29 Al     5.727380    0.000000   16.134886    ( 0.0000,  0.0000,  0.0000)
  30 Al     0.000000    2.863967   16.134886    ( 0.0000,  0.0000,  0.0000)
  31 Al     2.863474    2.863474   16.136554    ( 0.0000,  0.0000,  0.0000)
  32 Al     5.727874    2.863474   16.136554    ( 0.0000,  0.0000,  0.0000)
  33 Al     0.000000    5.727380   16.134886    ( 0.0000,  0.0000,  0.0000)
  34 Al     2.863474    5.727874   16.136554    ( 0.0000,  0.0000,  0.0000)
  35 Al     5.727874    5.727874   16.136554    ( 0.0000,  0.0000,  0.0000)

Unit cell:
           periodic     x           y           z      points  spacing
  1. axis:    yes    8.591347    0.000000    0.000000    52     0.1652
  2. axis:    yes    0.000000    8.591347    0.000000    52     0.1652
  3. axis:    no     0.000000    0.000000   26.075000   164     0.1590

  Lengths:   8.591347   8.591347  26.075000
  Angles:   90.000000  90.000000  90.000000

Effective grid spacing dv^(1/3) = 0.1631

     iter     time        total  log10-change:
                         energy  eigst   dens
iter:   1 12:49:06  -997.941263  -1.69
iter:   2 12:51:13  -997.939521  -2.52  -2.49
iter:   3 12:53:17  -997.934909c -1.98  -2.55
iter:   4 12:55:24  -997.935478c -3.32  -2.93
Writing to output.gpw (mode='')

iter:   5 12:57:38  -997.938486c -2.35  -2.91
iter:   6 12:59:46  -997.935318c -3.17  -2.57
iter:   7 13:01:58  -997.934318c -2.58  -2.76
iter:   8 13:04:07  -997.934531c -3.41  -3.12
iter:   9 13:06:17  -997.934432c -3.84  -3.28
Writing to output.gpw (mode='')

iter:  10 13:08:36  -997.934457c -3.11  -3.43
iter:  11 13:10:43  -997.934419c -4.50  -3.58
iter:  12 13:12:50  -997.934438c -4.51  -3.81
iter:  13 13:14:57  -997.934413c -4.81  -3.67
iter:  14 13:17:11  -997.934416c -5.41  -4.09c
Writing to output.gpw (mode='')

iter:  15 13:19:25  -997.934419c -5.98  -4.17c
iter:  16 13:21:22  -997.934416c -5.19  -4.18c
iter:  17 13:23:21  -997.934414c -6.19  -4.32c
iter:  18 13:25:25  -997.934414c -6.97  -4.36c
iter:  19 13:27:34  -997.934420c -5.34  -4.39c
Writing to output.gpw (mode='')

iter:  20 13:29:40  -997.934412c -5.16  -3.96
iter:  21 13:31:49  -997.934415c -4.81  -4.47c
iter:  22 13:33:55  -997.934415c -6.24  -4.33c
iter:  23 13:35:59  -997.934416c -5.75  -4.98c
iter:  24 13:38:05  -997.934415c -7.16  -4.76c
Writing to output.gpw (mode='')

iter:  25 13:40:12  -997.934415c -7.12  -4.88c
iter:  26 13:42:16  -997.934415c -8.24c -5.21c

Converged after 26 iterations.

Dipole moment: (-6.840952, -6.840952, 0.000033) |e|*Ang

Energy contributions relative to reference atoms: (reference = -237723.237536)

Kinetic:        +47.273875
Potential:       -5.412280
External:        +0.000000
XC:            -1039.771997
Entropy (-ST):   -0.139193
Local:           +0.045585
--------------------------
Free energy:   -998.004011
Extrapolated:  -997.934415

Dipole-layer corrected work functions: 4.506122, 4.506040 eV

Showing only first 2 kpts
 Kpt  Band  Eigenvalues  Occupancy
  0    52     -4.89299    1.99913
  0    53     -4.89248    1.99912
  0    54     -4.81638    1.99597
  0    55     -4.81609    1.99595

  1    52     -4.59135    1.69245
  1    53     -4.51327    1.07172
  1    54     -4.36310    0.10837
  1    55     -4.28753    0.02496


Fermi level: -4.50608

No gap
Writing to output.gpw (mode='')


Forces in eV/Ang:
  0 Al   -0.00295   -0.00295   -0.07372
  1 Al    0.00000    0.00316   -0.07620
  2 Al    0.00295   -0.00295   -0.07372
  3 Al    0.00316    0.00000   -0.07620
  4 Al    0.00000    0.00000   -0.07119
  5 Al   -0.00316    0.00000   -0.07620
  6 Al   -0.00295    0.00295   -0.07372
  7 Al    0.00000   -0.00316   -0.07620
  8 Al    0.00295    0.00295   -0.07372
  9 Al   -0.00000    0.00000   -0.05022
 10 Al   -0.00146    0.00000   -0.05114
 11 Al    0.00146    0.00000   -0.05114
 12 Al    0.00000   -0.00146   -0.05114
 13 Al    0.00055    0.00055   -0.04893
 14 Al   -0.00055    0.00055   -0.04893
 15 Al    0.00000    0.00146   -0.05114
 16 Al    0.00055   -0.00055   -0.04893
 17 Al   -0.00055   -0.00055   -0.04893
 18 Al   -0.00053   -0.00053    0.04898
 19 Al    0.00000    0.00150    0.05116
 20 Al    0.00053   -0.00053    0.04898
 21 Al    0.00150    0.00000    0.05116
 22 Al    0.00000    0.00000    0.05025
 23 Al   -0.00150    0.00000    0.05116
 24 Al   -0.00053    0.00053    0.04898
 25 Al   -0.00000   -0.00150    0.05116
 26 Al    0.00053    0.00053    0.04898
 27 Al    0.00000    0.00000    0.07112
 28 Al   -0.00314    0.00000    0.07611
 29 Al    0.00314    0.00000    0.07611
 30 Al    0.00000   -0.00314    0.07611
 31 Al    0.00293    0.00293    0.07359
 32 Al   -0.00293    0.00293    0.07359
 33 Al    0.00000    0.00314    0.07611
 34 Al    0.00293   -0.00293    0.07359
 35 Al   -0.00293   -0.00293    0.07359

System changes: positions 

Initializing position-dependent things.

Density initialized from wave functions
      .--------------------.  
     /|                    |  
    / |                    |  
   /  |                    |  
  /   |                    |  
 *    |                    |  
 |    |                    |  
 |    |                    |  
 |    |                    |  
 |    |                    |  
 |    |                    |  
 |    |                    |  
 |    |                    |  
 |    |                    |  
 |  Al|    Al     Al       |  
 |    |                    |  
 | Al |  AAl    AAl    Al  |  
 Al   |AAl    AAl    Al    |  
 |    |                    |  
 |  AAl    AAl    AAl      |  
 |    |                    |  
 | Al |  AAl    AAl    Al  |  
 Al   |AAl    AAl    Al    |  
 |    |                    |  
 |   Al     Al     Al      |  
 |    |                    |  
 |    |                    |  
 |    |                    |  
 |    |                    |  
 |    |                    |  
 |    |                    |  
 |    |                    |  
 |    .--------------------.  
 |   /                    /   
 |  /                    /    
 | /                    /     
 |/                    /      
 *--------------------*       

Positions:
   0 Al     1.432190    1.432190    9.928603    ( 0.0000,  0.0000,  0.0000)
   1 Al     4.295674    1.431731    9.930451    ( 0.0000,  0.0000,  0.0000)
   2 Al     7.159158    1.432190    9.928603    ( 0.0000,  0.0000,  0.0000)
   3 Al     1.431731    4.295674    9.930451    ( 0.0000,  0.0000,  0.0000)
   4 Al     4.295674    4.295674    9.926895    ( 0.0000,  0.0000,  0.0000)
   5 Al     7.159617    4.295674    9.930451    ( 0.0000,  0.0000,  0.0000)
   6 Al     1.432190    7.159158    9.928603    ( 0.0000,  0.0000,  0.0000)
   7 Al     4.295674    7.159617    9.930451    ( 0.0000,  0.0000,  0.0000)
   8 Al     7.159158    7.159158    9.928603    ( 0.0000,  0.0000,  0.0000)
   9 Al    -0.000000   -0.000000   12.000907    ( 0.0000,  0.0000,  0.0000)
  10 Al     2.862924    0.000000   12.002261    ( 0.0000,  0.0000,  0.0000)
  11 Al     5.728424    0.000000   12.002261    ( 0.0000,  0.0000,  0.0000)
  12 Al    -0.000000    2.862924   12.002261    ( 0.0000,  0.0000,  0.0000)
  13 Al     2.864120    2.864120   12.001089    ( 0.0000,  0.0000,  0.0000)
  14 Al     5.727227    2.864120   12.001089    ( 0.0000,  0.0000,  0.0000)
  15 Al     0.000000    5.728424   12.002261    ( 0.0000,  0.0000,  0.0000)
  16 Al     2.864120    5.727227   12.001089    ( 0.0000,  0.0000,  0.0000)
  17 Al     5.727227    5.727227   12.001089    ( 0.0000,  0.0000,  0.0000)
  18 Al     1.431552    1.431552   14.073907    ( 0.0000,  0.0000,  0.0000)
  19 Al     4.295674    1.432748   14.072734    ( 0.0000,  0.0000,  0.0000)
  20 Al     7.159796    1.431552   14.073907    ( 0.0000,  0.0000,  0.0000)
  21 Al     1.432748    4.295674   14.072734    ( 0.0000,  0.0000,  0.0000)
  22 Al     4.295674    4.295674   14.074088    ( 0.0000,  0.0000,  0.0000)
  23 Al     7.158599    4.295674   14.072734    ( 0.0000,  0.0000,  0.0000)
  24 Al     1.431552    7.159796   14.073907    ( 0.0000,  0.0000,  0.0000)
  25 Al     4.295674    7.158599   14.072734    ( 0.0000,  0.0000,  0.0000)
  26 Al     7.159796    7.159796   14.073907    ( 0.0000,  0.0000,  0.0000)
  27 Al    -0.000000    0.000000   16.148087    ( 0.0000,  0.0000,  0.0000)
  28 Al     2.863941   -0.000000   16.144532    ( 0.0000,  0.0000,  0.0000)
  29 Al     5.727406    0.000000   16.144532    ( 0.0000,  0.0000,  0.0000)
  30 Al     0.000000    2.863941   16.144532    ( 0.0000,  0.0000,  0.0000)
  31 Al     2.863481    2.863481   16.146381    ( 0.0000,  0.0000,  0.0000)
  32 Al     5.727866    2.863481   16.146381    ( 0.0000,  0.0000,  0.0000)
  33 Al     0.000000    5.727406   16.144532    ( 0.0000,  0.0000,  0.0000)
  34 Al     2.863481    5.727866   16.146381    ( 0.0000,  0.0000,  0.0000)
  35 Al     5.727866    5.727866   16.146381    ( 0.0000,  0.0000,  0.0000)

Unit cell:
           periodic     x           y           z      points  spacing
  1. axis:    yes    8.591347    0.000000    0.000000    52     0.1652
  2. axis:    yes    0.000000    8.591347    0.000000    52     0.1652
  3. axis:    no     0.000000    0.000000   26.075000   164     0.1590

  Lengths:   8.591347   8.591347  26.075000
  Angles:   90.000000  90.000000  90.000000

Effective grid spacing dv^(1/3) = 0.1631

     iter     time        total  log10-change:
                         energy  eigst   dens
iter:   1 13:44:40  -997.956262  -1.68
iter:   2 13:46:47  -997.954131  -2.52  -2.48
iter:   3 13:48:54  -997.948732c -1.87  -2.54
iter:   4 13:50:56  -997.949486c -3.15  -2.90
Writing to output.gpw (mode='')

iter:   5 13:53:05  -997.953432c -2.21  -2.91
iter:   6 13:55:20  -997.949503c -3.15  -2.54
iter:   7 13:57:25  -997.948103c -2.49  -2.73
iter:   8 13:59:28  -997.948349c -3.27  -3.13
iter:   9 14:01:28  -997.948237c -3.82  -3.30
Writing to output.gpw (mode='')

iter:  10 14:03:35  -997.948193c -3.30  -3.56
iter:  11 14:05:39  -997.948203c -4.30  -3.79
iter:  12 14:07:51  -997.948212c -4.19  -3.84
iter:  13 14:10:01  -997.948214c -4.89  -3.64
iter:  14 14:12:01  -997.948220c -5.13  -4.07c
Writing to output.gpw (mode='')

iter:  15 14:14:11  -997.948222c -5.46  -4.27c
iter:  16 14:16:12  -997.948221c -6.17  -4.39c
iter:  17 14:18:14  -997.948230c -5.26  -4.31c
iter:  18 14:20:21  -997.948227c -6.52  -4.46c
iter:  19 14:22:23  -997.948215c -5.74  -4.52c
Writing to output.gpw (mode='')

iter:  20 14:24:30  -997.948223c -5.64  -4.20c
iter:  21 14:26:36  -997.948231c -5.16  -4.64c
iter:  22 14:28:42  -997.948218c -5.91  -4.44c
iter:  23 14:30:58  -997.948214c -5.34  -4.63c
iter:  24 14:33:00  -997.948222c -5.74  -4.18c
Writing to output.gpw (mode='')

iter:  25 14:35:06  -997.948224c -5.83  -4.82c
iter:  26 14:37:06  -997.948224c -6.56  -5.38c
iter:  27 14:39:21  -997.948222c -7.65c -5.44c

Converged after 27 iterations.

Dipole moment: (-6.840735, -6.840735, -0.000009) |e|*Ang

Energy contributions relative to reference atoms: (reference = -237723.237536)

Kinetic:        +44.798258
Potential:       -3.627657
External:        +0.000000
XC:            -1039.097010
Entropy (-ST):   -0.140375
Local:           +0.048374
--------------------------
Free energy:   -998.018410
Extrapolated:  -997.948222

Dipole-layer corrected work functions: 4.501443, 4.501464 eV

Showing only first 2 kpts
 Kpt  Band  Eigenvalues  Occupancy
  0    52     -4.88137    1.99900
  0    53     -4.88071    1.99898
  0    54     -4.80970    1.99580
  0    55     -4.80926    1.99577

  1    52     -4.58453    1.68088
  1    53     -4.51007    1.08596
  1    54     -4.33743    0.07249
  1    55     -4.27825    0.02277


Fermi level: -4.50145

No gap
Writing to output.gpw (mode='')


Forces in eV/Ang:
  0 Al   -0.00270   -0.00270   -0.05181
  1 Al    0.00000    0.00267   -0.05753
  2 Al    0.00270   -0.00270   -0.05181
  3 Al    0.00267    0.00000   -0.05753
  4 Al    0.00000    0.00000   -0.04926
  5 Al   -0.00267    0.00000   -0.05753
  6 Al   -0.00270    0.00270   -0.05181
  7 Al    0.00000   -0.00267   -0.05753
  8 Al    0.00270    0.00270   -0.05181
  9 Al    0.00000    0.00000   -0.04516
 10 Al   -0.00082    0.00000   -0.04714
 11 Al    0.00082    0.00000   -0.04714
 12 Al   -0.00000   -0.00082   -0.04714
 13 Al    0.00024    0.00024   -0.04375
 14 Al   -0.00024    0.00024   -0.04375
 15 Al   -0.00000    0.00082   -0.04714
 16 Al    0.00024   -0.00024   -0.04375
 17 Al   -0.00024   -0.00024   -0.04375
 18 Al   -0.00023   -0.00023    0.04372
 19 Al    0.00000    0.00082    0.04712
 20 Al    0.00023   -0.00023    0.04372
 21 Al    0.00082    0.00000    0.04712
 22 Al    0.00000    0.00000    0.04516
 23 Al   -0.00082    0.00000    0.04712
 24 Al   -0.00023    0.00023    0.04372
 25 Al    0.00000   -0.00082    0.04712
 26 Al    0.00023    0.00023    0.04372
 27 Al    0.00000    0.00000    0.04933
 28 Al   -0.00266    0.00000    0.05756
 29 Al    0.00266    0.00000    0.05756
 30 Al    0.00000   -0.00266    0.05756
 31 Al    0.00272    0.00272    0.05187
 32 Al   -0.00272    0.00272    0.05187
 33 Al    0.00000    0.00266    0.05756
 34 Al    0.00272   -0.00272    0.05187
 35 Al   -0.00272   -0.00272    0.05187

System changes: positions 

Initializing position-dependent things.

Density initialized from wave functions
      .--------------------.  
     /|                    |  
    / |                    |  
   /  |                    |  
  /   |                    |  
 *    |                    |  
 |    |                    |  
 |    |                    |  
 |    |                    |  
 |    |                    |  
 |    |                    |  
 |    |                    |  
 |    |                    |  
 |    |                    |  
 |  Al|    Al     Al       |  
 |    |                    |  
 | Al |  AAl    AAl    Al  |  
 Al   |AAl    AAl    Al    |  
 |    |                    |  
 |  AAl    AAl    AAl      |  
 |    |                    |  
 | Al |  AAl    AAl    Al  |  
 Al   |AAl    AAl    Al    |  
 |    |                    |  
 |   Al     Al     Al      |  
 |    |                    |  
 |    |                    |  
 |    |                    |  
 |    |                    |  
 |    |                    |  
 |    |                    |  
 |    |                    |  
 |    .--------------------.  
 |   /                    /   
 |  /                    /    
 | /                    /     
 |/                    /      
 *--------------------*       

Positions:
   0 Al     1.432173    1.432173    9.918762    ( 0.0000,  0.0000,  0.0000)
   1 Al     4.295674    1.431762    9.920721    ( 0.0000,  0.0000,  0.0000)
   2 Al     7.159174    1.432173    9.918762    ( 0.0000,  0.0000,  0.0000)
   3 Al     1.431762    4.295674    9.920721    ( 0.0000,  0.0000,  0.0000)
   4 Al     4.295674    4.295674    9.916895    ( 0.0000,  0.0000,  0.0000)
   5 Al     7.159585    4.295674    9.920721    ( 0.0000,  0.0000,  0.0000)
   6 Al     1.432173    7.159174    9.918762    ( 0.0000,  0.0000,  0.0000)
   7 Al     4.295674    7.159585    9.920721    ( 0.0000,  0.0000,  0.0000)
   8 Al     7.159174    7.159174    9.918762    ( 0.0000,  0.0000,  0.0000)
   9 Al    -0.000000   -0.000000   11.997054    ( 0.0000,  0.0000,  0.0000)
  10 Al     2.862802    0.000000   11.998536    ( 0.0000,  0.0000,  0.0000)
  11 Al     5.728546    0.000000   11.998536    ( 0.0000,  0.0000,  0.0000)
  12 Al    -0.000000    2.862802   11.998536    ( 0.0000,  0.0000,  0.0000)
  13 Al     2.864166    2.864166   11.997286    ( 0.0000,  0.0000,  0.0000)
  14 Al     5.727181    2.864166   11.997286    ( 0.0000,  0.0000,  0.0000)
  15 Al     0.000000    5.728546   11.998536    ( 0.0000,  0.0000,  0.0000)
  16 Al     2.864166    5.727181   11.997286    ( 0.0000,  0.0000,  0.0000)
  17 Al     5.727181    5.727181   11.997286    ( 0.0000,  0.0000,  0.0000)
  18 Al     1.431505    1.431505   14.077709    ( 0.0000,  0.0000,  0.0000)
  19 Al     4.295674    1.432870   14.076459    ( 0.0000,  0.0000,  0.0000)
  20 Al     7.159842    1.431505   14.077709    ( 0.0000,  0.0000,  0.0000)
  21 Al     1.432870    4.295674   14.076459    ( 0.0000,  0.0000,  0.0000)
  22 Al     4.295674    4.295674   14.077940    ( 0.0000,  0.0000,  0.0000)
  23 Al     7.158477    4.295674   14.076459    ( 0.0000,  0.0000,  0.0000)
  24 Al     1.431505    7.159842   14.077709    ( 0.0000,  0.0000,  0.0000)
  25 Al     4.295674    7.158477   14.076459    ( 0.0000,  0.0000,  0.0000)
  26 Al     7.159842    7.159842   14.077709    ( 0.0000,  0.0000,  0.0000)
  27 Al    -0.000000    0.000000   16.158086    ( 0.0000,  0.0000,  0.0000)
  28 Al     2.863910   -0.000000   16.154260    ( 0.0000,  0.0000,  0.0000)
  29 Al     5.727438    0.000000   16.154260    ( 0.0000,  0.0000,  0.0000)
  30 Al     0.000000    2.863910   16.154260    ( 0.0000,  0.0000,  0.0000)
  31 Al     2.863497    2.863497   16.156221    ( 0.0000,  0.0000,  0.0000)
  32 Al     5.727850    2.863497   16.156221    ( 0.0000,  0.0000,  0.0000)
  33 Al     0.000000    5.727438   16.154260    ( 0.0000,  0.0000,  0.0000)
  34 Al     2.863497    5.727850   16.156221    ( 0.0000,  0.0000,  0.0000)
  35 Al     5.727850    5.727850   16.156221    ( 0.0000,  0.0000,  0.0000)

Unit cell:
           periodic     x           y           z      points  spacing
  1. axis:    yes    8.591347    0.000000    0.000000    52     0.1652
  2. axis:    yes    0.000000    8.591347    0.000000    52     0.1652
  3. axis:    no     0.000000    0.000000   26.075000   164     0.1590

  Lengths:   8.591347   8.591347  26.075000
  Angles:   90.000000  90.000000  90.000000

Effective grid spacing dv^(1/3) = 0.1631

     iter     time        total  log10-change:
                         energy  eigst   dens
iter:   1 14:41:53  -997.966853  -1.67
iter:   2 14:43:51  -997.964366  -2.51  -2.47
iter:   3 14:45:55  -997.958450c -1.82  -2.53
iter:   4 14:47:56  -997.959282c -3.05  -2.86
Writing to output.gpw (mode='')

iter:   5 14:49:58  -997.963761c -2.15  -2.91
iter:   6 14:52:06  -997.959615c -3.24  -2.53
iter:   7 14:54:20  -997.957775c -2.48  -2.70
iter:   8 14:56:27  -997.957929c -3.26  -3.11
iter:   9 14:58:29  -997.958576c -3.89  -3.33
Writing to output.gpw (mode='')

iter:  10 15:00:35  -997.958021c -2.66  -3.01
iter:  11 15:02:34  -997.957836c -4.03  -3.13
iter:  12 15:04:38  -997.957842c -3.90  -3.43
iter:  13 15:06:44  -997.957901c -3.68  -3.72
iter:  14 15:08:48  -997.957849c -5.10  -4.04c
Writing to output.gpw (mode='')

iter:  15 15:10:50  -997.957849c -5.54  -4.03c
iter:  16 15:13:06  -997.957918c -4.28  -4.02c
iter:  17 15:15:19  -997.957858c -4.76  -3.78
iter:  18 15:17:32  -997.957863c -5.41  -4.55c
iter:  19 15:19:40  -997.957876c -6.37  -4.64c
Writing to output.gpw (mode='')

iter:  20 15:21:55  -997.957868c -6.30  -4.52c
iter:  21 15:24:04  -997.957867c -6.73  -4.86c
iter:  22 15:26:15  -997.957869c -7.16  -5.03c
iter:  23 15:28:14  -997.957868c -6.63  -5.04c
iter:  24 15:30:17  -997.957869c -7.34  -4.89c
Writing to output.gpw (mode='')

iter:  25 15:32:24  -997.957869c -7.26  -5.08c
iter:  26 15:34:43  -997.957868c -7.62c -4.88c

Converged after 26 iterations.

Dipole moment: (-6.840504, -6.840504, -0.000007) |e|*Ang

Energy contributions relative to reference atoms: (reference = -237723.237536)

Kinetic:        +42.323786
Potential:       -1.839936
External:        +0.000000
XC:            -1038.422657
Entropy (-ST):   -0.142358
Local:           +0.052119
--------------------------
Free energy:   -998.029047
Extrapolated:  -997.957868

Dipole-layer corrected work functions: 4.497096, 4.497112 eV

Showing only first 2 kpts
 Kpt  Band  Eigenvalues  Occupancy
  0    52     -4.86927    1.99883
  0    53     -4.86845    1.99881
  0    54     -4.80278    1.99558
  0    55     -4.80219    1.99553

  1    52     -4.57746    1.66603
  1    53     -4.50807    1.10926
  1    54     -4.31360    0.04968
  1    55     -4.26798    0.02025


Fermi level: -4.49710

No gap
Writing to output.gpw (mode='')


Forces in eV/Ang:
  0 Al   -0.00198   -0.00198   -0.03049
  1 Al    0.00000    0.00153   -0.03830
  2 Al    0.00198   -0.00198   -0.03049
  3 Al    0.00153    0.00000   -0.03830
  4 Al    0.00000    0.00000   -0.02671
  5 Al   -0.00153    0.00000   -0.03830
  6 Al   -0.00198    0.00198   -0.03049
  7 Al    0.00000   -0.00153   -0.03830
  8 Al    0.00198    0.00198   -0.03049
  9 Al    0.00000    0.00000   -0.03957
 10 Al   -0.00002    0.00000   -0.04274
 11 Al    0.00002    0.00000   -0.04274
 12 Al   -0.00000   -0.00002   -0.04274
 13 Al   -0.00003   -0.00003   -0.03824
 14 Al    0.00003   -0.00003   -0.03824
 15 Al   -0.00000    0.00002   -0.04274
 16 Al   -0.00003    0.00003   -0.03824
 17 Al    0.00003    0.00003   -0.03824
 18 Al    0.00003    0.00003    0.03821
 19 Al   -0.00000    0.00002    0.04271
 20 Al   -0.00003    0.00003    0.03821
 21 Al    0.00002    0.00000    0.04271
 22 Al    0.00000    0.00000    0.03957
 23 Al   -0.00002    0.00000    0.04271
 24 Al    0.00003   -0.00003    0.03821
 25 Al   -0.00000   -0.00002    0.04271
 26 Al   -0.00003   -0.00003    0.03821
 27 Al    0.00000    0.00000    0.02677
 28 Al   -0.00152    0.00000    0.03835
 29 Al    0.00152    0.00000    0.03835
 30 Al    0.00000   -0.00152    0.03835
 31 Al    0.00199    0.00199    0.03055
 32 Al   -0.00199    0.00199    0.03055
 33 Al    0.00000    0.00152    0.03835
 34 Al    0.00199   -0.00199    0.03055
 35 Al   -0.00199   -0.00199    0.03055

Timing:                                      incl.     excl.
-------------------------------------------------------------------
Density initialized from wave functions:    14.478     7.683   0.0% |
 Symmetrize density:                         6.795     6.795   0.0% |
Forces:                                     56.607    56.607   0.2% |
Hamiltonian:                               797.292     0.002   0.0% |
 Atomic:                                     2.597     0.223   0.0% |
  XC Correction:                             2.374     2.374   0.0% |
 Calculate atomic Hamiltonians:              1.922     1.922   0.0% |
 Communicate:                                3.332     3.332   0.0% |
 Hartree integrate/restrict:                 1.160     1.160   0.0% |
 Initialize Hamiltonian:                     0.000     0.000   0.0% |
 Poisson:                                   15.263     5.166   0.0% |
  Communicate from 1D:                       2.145     2.145   0.0% |
  Communicate from 2D:                       2.237     2.237   0.0% |
  Communicate to 1D:                         0.922     0.922   0.0% |
  Communicate to 2D:                         1.888     1.888   0.0% |
  FFT 1D:                                    1.659     1.659   0.0% |
  FFT 2D:                                    1.245     1.245   0.0% |
 XC 3D grid:                               772.933    36.743   0.1% |
  VdW-DF integral:                         736.190     1.640   0.0% |
   Convolution:                             39.986    39.986   0.1% |
   FFT:                                      6.736     6.736   0.0% |
   gather:                                 590.196   590.196   1.7% ||
   hmm1:                                     7.698     7.698   0.0% |
   hmm2:                                     9.921     9.921   0.0% |
   iFFT:                                     7.090     7.090   0.0% |
   potential:                               60.096     0.505   0.0% |
    collect:                                 9.024     9.024   0.0% |
    p1:                                     21.216    21.216   0.1% |
    p2:                                     13.505    13.505   0.0% |
    sum:                                    15.845    15.845   0.0% |
   splines:                                 12.828    12.828   0.0% |
 vbar:                                       0.083     0.083   0.0% |
LCAO initialization:                         4.284     0.044   0.0% |
 LCAO eigensolver:                           1.312     0.001   0.0% |
  Calculate projections:                     0.000     0.000   0.0% |
  DenseAtomicCorrection:                     0.000     0.000   0.0% |
  Distribute overlap matrix:                 1.250     1.250   0.0% |
  Orbital Layouts:                           0.057     0.057   0.0% |
  Potential matrix:                          0.002     0.002   0.0% |
  Sum over cells:                            0.003     0.003   0.0% |
 LCAO to grid:                               2.002     2.002   0.0% |
 Set positions (LCAO WFS):                   0.926     0.750   0.0% |
  Basic WFS set positions:                   0.023     0.023   0.0% |
  Basis functions set positions:             0.001     0.001   0.0% |
  P tci:                                     0.000     0.000   0.0% |
  ST tci:                                    0.063     0.063   0.0% |
  mktci:                                     0.088     0.088   0.0% |
Redistribute:                                0.021     0.021   0.0% |
SCF-cycle:                               32723.231   606.169   1.8% ||
 Davidson:                               11076.256  5173.172  15.3% |-----|
  Apply hamiltonian:                       480.900   480.900   1.4% ||
  Subspace diag:                          1147.200     0.052   0.0% |
   calc_h_matrix:                          684.718   208.911   0.6% |
    Apply hamiltonian:                     475.807   475.807   1.4% ||
   diagonalize:                             84.457    84.457   0.3% |
   rotate_psi:                             377.973   377.973   1.1% |
  calc. matrices:                         3442.681  1686.977   5.0% |-|
   Apply hamiltonian:                     1755.704  1755.704   5.2% |-|
  diagonalize:                              18.296    18.296   0.1% |
  rotate_psi:                              814.007   814.007   2.4% ||
 Density:                                  316.638     0.009   0.0% |
  Atomic density matrices:                  37.191    37.191   0.1% |
  Mix:                                      46.171    46.171   0.1% |
  Multipole moments:                         0.774     0.774   0.0% |
  Pseudo density:                          232.492    39.908   0.1% |
   Symmetrize density:                     192.584   192.584   0.6% |
 Hamiltonian:                            20695.019     0.058   0.0% |
  Atomic:                                   71.241    15.323   0.0% |
   XC Correction:                           55.917    55.917   0.2% |
  Calculate atomic Hamiltonians:            51.234    51.234   0.2% |
  Communicate:                              96.483    96.483   0.3% |
  Hartree integrate/restrict:               22.472    22.472   0.1% |
  Poisson:                                 375.600   144.635   0.4% |
   Communicate from 1D:                     42.418    42.418   0.1% |
   Communicate from 2D:                     49.825    49.825   0.1% |
   Communicate to 1D:                       25.553    25.553   0.1% |
   Communicate to 2D:                       43.434    43.434   0.1% |
   FFT 1D:                                  37.440    37.440   0.1% |
   FFT 2D:                                  32.297    32.297   0.1% |
  XC 3D grid:                            20075.887   927.741   2.7% ||
   VdW-DF integral:                      19148.146    39.974   0.1% |
    Convolution:                          1053.279  1053.279   3.1% ||
    FFT:                                   197.306   197.306   0.6% |
    gather:                              15703.986 15703.986  46.5% |------------------|
    hmm1:                                  189.012   189.012   0.6% |
    hmm2:                                  263.327   263.327   0.8% |
    iFFT:                                  192.036   192.036   0.6% |
    potential:                            1509.222    11.843   0.0% |
     collect:                              214.501   214.501   0.6% |
     p1:                                   552.982   552.982   1.6% ||
     p2:                                   356.355   356.355   1.1% |
     sum:                                  373.541   373.541   1.1% |
    splines:                                 0.003     0.003   0.0% |
  vbar:                                      2.044     2.044   0.0% |
 Orthonormalize:                            29.149     0.003   0.0% |
  calc_s_matrix:                             3.319     3.319   0.0% |
  inverse-cholesky:                         18.841    18.841   0.1% |
  projections:                               0.000     0.000   0.0% |
  rotate_psi_s:                              6.986     6.986   0.0% |
Set symmetry:                                0.020     0.020   0.0% |
Other:                                     141.524   141.524   0.4% |
-------------------------------------------------------------------
Total:                                             33737.457 100.0%

Memory usage: 1015.08 MiB
Date: Tue Jan 17 15:34:52 2023
