
  ___ ___ ___ _ _ _  
 |   |   |_  | | | | 
 | | | | | . | | | | 
 |__ |  _|___|_____|  22.8.0
 |___|_|             

User:   vazumah@f002
Date:   Wed Nov 23 02:11:23 2022
Arch:   x86_64
Pid:    13853
CWD:    /home/vazumah/Python_Projects/Li_NRR/autocad_start/bulk_relaxations/Ca_bulk_fcc
Python: 3.10.6
gpaw:   /home/vazumah/anaconda3/envs/NAME/lib/python3.10/site-packages/gpaw
_gpaw:  /home/vazumah/anaconda3/envs/NAME/lib/python3.10/site-packages/
        _gpaw.cpython-310-x86_64-linux-gnu.so
ase:    /home/vazumah/anaconda3/envs/NAME/lib/python3.10/site-packages/ase (version 3.22.1)
numpy:  /home/vazumah/anaconda3/envs/NAME/lib/python3.10/site-packages/numpy (version 1.23.3)
scipy:  /home/vazumah/anaconda3/envs/NAME/lib/python3.10/site-packages/scipy (version 1.9.1)
libxc:  5.2.3
units:  Angstrom and eV
cores: 32
OpenMP: True
OMP_NUM_THREADS: 1

Input parameters:
  h: 0.16
  kpts: {size: [9, 9, 1]}
  occupations: {name: fermi-dirac,
                width: 0.05}
  xc: BEEF-vdW

System changes: positions, numbers, cell, pbc, initial_charges, initial_magmoms 

Initialize ...

species:
  Ca:
    name: Calcium
    id: 0641b8f64fa1d43c6d3de45527ace046
    Z: 20.0
    valence: 10
    core: 10
    charge: 0.0
    file: /home/vazumah/anaconda3/envs/NAME/share/gpaw/Ca.PBE.gz
    compensation charges: {type: gauss,
                           rc: 0.37,
                           lmax: 2}
    cutoffs: {filter: 2.10,
              core: 1.17}
    valence states:
      #              energy  rcut
      - 3s(2.00)   -47.086   1.175
      - 4s(2.00)    -3.766   1.175
      - 3p(6.00)   -28.008   1.154
      -  p          -0.797   1.154
      -  d           0.000   0.937
  
    # Using partial waves for Ca as LCAO basis

Reference energy: -18510.869232  # eV

Spin-paired calculation

Convergence criteria:
 Maximum [total energy] change in last 3 cyles: 0.0005 eV / electron
 Maximum integral of absolute [dens]ity change: 0.0001 electrons / valence electron
 Maximum integral of absolute [eigenst]ate change: 4e-08 eV^2 / valence electron
 Maximum number of scf [iter]ations: 333
 (Square brackets indicate name in SCF output, whereas a 'c' in
 the SCF output indicates the quantity has converged.)

Symmetries present (total): 48

  ( 1  0  0)  ( 1  0  0)  ( 1  0  0)  ( 1  0  0)  ( 1  0 -1)  ( 1  0 -1)
  ( 1  0 -1)  ( 1 -1  0)  ( 0  1  0)  ( 0  0  1)  ( 1  0  0)  ( 1 -1  0)
  ( 1 -1  0)  ( 1  0 -1)  ( 0  0  1)  ( 0  1  0)  ( 1 -1  0)  ( 1  0  0)

  ( 1  0 -1)  ( 1  0 -1)  ( 1 -1  0)  ( 1 -1  0)  ( 1 -1  0)  ( 1 -1  0)
  ( 0  1 -1)  ( 0  0 -1)  ( 1  0  0)  ( 1  0 -1)  ( 0 -1  1)  ( 0 -1  0)
  ( 0  0 -1)  ( 0  1 -1)  ( 1  0 -1)  ( 1  0  0)  ( 0 -1  0)  ( 0 -1  1)

  ( 0  1  0)  ( 0  1  0)  ( 0  1  0)  ( 0  1  0)  ( 0  1 -1)  ( 0  1 -1)
  ( 1  0  0)  ( 0  1 -1)  ( 0  0  1)  (-1  1  0)  ( 1  0 -1)  ( 0  1  0)
  ( 0  0  1)  (-1  1  0)  ( 1  0  0)  ( 0  1 -1)  ( 0  0 -1)  (-1  1  0)

  ( 0  1 -1)  ( 0  1 -1)  ( 0  0  1)  ( 0  0  1)  ( 0  0  1)  ( 0  0  1)
  ( 0  0 -1)  (-1  1  0)  ( 1  0  0)  ( 0  1  0)  ( 0 -1  1)  (-1  0  1)
  ( 1  0 -1)  ( 0  1  0)  ( 0  1  0)  ( 1  0  0)  (-1  0  1)  ( 0 -1  1)

  ( 0  0 -1)  ( 0  0 -1)  ( 0  0 -1)  ( 0  0 -1)  ( 0 -1  1)  ( 0 -1  1)
  ( 1  0 -1)  ( 0  1 -1)  ( 0 -1  0)  (-1  0  0)  ( 1 -1  0)  ( 0  0  1)
  ( 0  1 -1)  ( 1  0 -1)  (-1  0  0)  ( 0 -1  0)  ( 0 -1  0)  (-1  0  1)

  ( 0 -1  1)  ( 0 -1  1)  ( 0 -1  0)  ( 0 -1  0)  ( 0 -1  0)  ( 0 -1  0)
  ( 0 -1  0)  (-1  0  1)  ( 1 -1  0)  ( 0  0 -1)  ( 0 -1  1)  (-1  0  0)
  ( 1 -1  0)  ( 0  0  1)  ( 0 -1  1)  (-1  0  0)  ( 1 -1  0)  ( 0  0 -1)

  (-1  1  0)  (-1  1  0)  (-1  1  0)  (-1  1  0)  (-1  0  1)  (-1  0  1)
  ( 0  1  0)  ( 0  1 -1)  (-1  0  1)  (-1  0  0)  ( 0  0  1)  ( 0 -1  1)
  ( 0  1 -1)  ( 0  1  0)  (-1  0  0)  (-1  0  1)  ( 0 -1  1)  ( 0  0  1)

  (-1  0  1)  (-1  0  1)  (-1  0  0)  (-1  0  0)  (-1  0  0)  (-1  0  0)
  (-1  1  0)  (-1  0  0)  ( 0  0 -1)  ( 0 -1  0)  (-1  1  0)  (-1  0  1)
  (-1  0  0)  (-1  1  0)  ( 0 -1  0)  ( 0  0 -1)  (-1  0  1)  (-1  1  0)
Note: your k-points are not as symmetric as your crystal!

81 k-points: 9 x 9 x 1 Monkhorst-Pack grid
25 k-points in the irreducible part of the Brillouin zone
       k-points in crystal coordinates                weights
   0:     0.00000000    0.00000000    0.00000000          1/81
   1:     0.11111111   -0.11111111    0.00000000          2/81
   2:     0.11111111    0.00000000    0.00000000          4/81
   3:     0.11111111    0.11111111    0.00000000          2/81
   4:     0.22222222   -0.22222222    0.00000000          2/81
   5:     0.22222222   -0.11111111    0.00000000          4/81
   6:     0.22222222    0.00000000    0.00000000          4/81
   7:     0.22222222    0.11111111    0.00000000          4/81
   8:     0.22222222    0.22222222    0.00000000          2/81
   9:     0.33333333   -0.33333333    0.00000000          2/81
          ...
  24:     0.44444444    0.44444444    0.00000000          2/81

Wave functions: Uniform real-space grid
  Kinetic energy operator: 12*3+1=37 point O(h^6) finite-difference Laplacian
  ScaLapack parameters: grid=1x1, blocksize=None
  Wavefunction extrapolation:
    Improved wavefunction reuse through dual PAW basis 

Occupation numbers: Fermi-Dirac:
  width: 0.0500  # eV
 

Eigensolver
   Davidson(niter=2) 

Densities:
  Coarse grid: 20*20*20 grid
  Fine grid: 40*40*40 grid
  Total Charge: 0.000000 

Density mixing:
  Method: separate
  Backend: pulay
  Linear mixing parameter: 0.05
  old densities: 5
  Damping of long wavelength oscillations: 50 

Hamiltonian:
  XC and Coulomb potentials evaluated on a 40*40*40 grid
  Using the BEEF-vdW Exchange-Correlation functional
  Interpolation: tri-quintic (5. degree polynomial)
  Poisson solver: FastPoissonSolver using
    Stencil: 12*3+1=37 point O(h^6) finite-difference Laplacian
    FFT axes: [0, 1, 2]
    FST axes: []
 

XC parameters: BEEF-vdW with 2 nearest neighbor stencil

Memory estimate:
  Process memory now: 111.79 MiB
  Calculator: 1.16 MiB
    Density: 0.48 MiB
      Arrays: 0.10 MiB
      Localized functions: 0.34 MiB
      Mixer: 0.04 MiB
    Hamiltonian: 0.09 MiB
      Arrays: 0.06 MiB
      XC: 0.00 MiB
      Poisson: 0.00 MiB
      vbar: 0.03 MiB
    Wavefunctions: 0.58 MiB
      Arrays psit_nG: 0.46 MiB
      Eigensolver: 0.08 MiB
      Projections: 0.00 MiB
      Projectors: 0.04 MiB

Total number of cores used: 32
Parallelization over k-points: 2
Domain decomposition: 4 x 2 x 2

Number of atoms: 1
Number of atomic orbitals: 5
Number of bands in calculation: 5
Number of valence electrons: 10
Bands to converge: occupied

... initialized

Initializing position-dependent things.

Density initialized from atomic densities
Creating initial wave functions:
  5 bands from LCAO basis set

                
                
                
       Ca       
                
                
                
                

Positions:
   0 Ca     0.000000    0.000000    0.000000    ( 0.0000,  0.0000,  0.0000)

Unit cell:
           periodic     x           y           z      points  spacing
  1. axis:    yes    0.000000    2.790000    2.790000    20     0.1611
  2. axis:    yes    2.790000    0.000000    2.790000    20     0.1611
  3. axis:    yes    2.790000    2.790000    0.000000    20     0.1611

  Lengths:   3.945656   3.945656   3.945656
  Angles:   60.000000  60.000000  60.000000

Effective grid spacing dv^(1/3) = 0.1758

     iter     time        total  log10-change:
                         energy  eigst   dens
iter:   1 02:11:31   -44.983796
iter:   2 02:11:40   -45.172706  +0.38  -1.56
iter:   3 02:11:47   -45.262634  +0.05  -1.58
iter:   4 02:11:55   -45.328102  -0.15  -1.63
Writing to output.gpw (mode='')

iter:   5 02:12:03   -45.358040  -0.40  -2.18
iter:   6 02:12:10   -45.360697  -0.82  -2.23
iter:   7 02:12:18   -45.368074  -0.96  -2.48
iter:   8 02:12:20   -45.373411  -1.10  -2.40
iter:   9 02:12:21   -45.380566  -1.13  -2.29
Writing to output.gpw (mode='')

iter:  10 02:12:22   -45.375716  -1.49  -2.28
iter:  11 02:12:23   -45.377111c -1.61  -2.97
iter:  12 02:12:24   -45.377990c -1.70  -2.76
iter:  13 02:12:25   -45.378893c -1.78  -2.71
iter:  14 02:12:26   -45.379725c -1.84  -2.64
Writing to output.gpw (mode='')

iter:  15 02:12:27   -45.380396c -1.90  -2.82
iter:  16 02:12:28   -45.381022c -1.95  -2.68
iter:  17 02:12:28   -45.381561c -2.01  -2.74
iter:  18 02:12:29   -45.382003c -2.06  -2.75
iter:  19 02:12:30   -45.382390c -2.11  -2.73
Writing to output.gpw (mode='')

iter:  20 02:12:32   -45.382758c -2.14  -2.67
iter:  21 02:12:33   -45.383043c -2.20  -2.74
iter:  22 02:12:33   -45.383326c -2.25  -2.61
iter:  23 02:12:34   -45.383609c -2.29  -2.62
iter:  24 02:12:35   -45.383888c -2.33  -2.74
Writing to output.gpw (mode='')

iter:  25 02:12:36   -45.384076c -2.37  -2.88
iter:  26 02:12:37   -45.384279c -2.42  -3.04
iter:  27 02:12:38   -45.384431c -2.46  -3.20
iter:  28 02:12:40   -45.384572c -2.51  -3.30
iter:  29 02:12:40   -45.384701c -2.55  -3.37
Writing to output.gpw (mode='')

iter:  30 02:12:42   -45.384827c -2.59  -3.42
iter:  31 02:12:43   -45.384929c -2.63  -3.38
iter:  32 02:12:43   -45.385027c -2.68  -3.18
iter:  33 02:12:44   -45.385118c -2.73  -3.41
iter:  34 02:12:46   -45.385192c -2.78  -3.01
Writing to output.gpw (mode='')

iter:  35 02:12:46   -45.385263c -2.79  -3.69
iter:  36 02:12:48   -45.385328c -2.86  -3.09
iter:  37 02:12:49   -45.385386c -2.89  -3.25
iter:  38 02:12:50   -45.385436c -2.95  -3.13
iter:  39 02:12:51   -45.385458c -3.04  -3.62
Writing to output.gpw (mode='')

iter:  40 02:12:52   -45.385500c -3.07  -2.88
iter:  41 02:12:53   -45.385539c -3.12  -2.93
iter:  42 02:12:54   -45.385579c -3.12  -3.00
iter:  43 02:12:55   -45.385609c -3.18  -3.10
iter:  44 02:12:56   -45.385642c -3.21  -3.13
Writing to output.gpw (mode='')

iter:  45 02:13:03   -45.385666c -3.24  -3.92
iter:  46 02:13:04   -45.385689c -3.28  -4.08c
iter:  47 02:13:05   -45.385710c -3.32  -4.14c
iter:  48 02:13:09   -45.385727c -3.38  -4.19c
iter:  49 02:13:10   -45.385744c -3.42  -4.15c
Writing to output.gpw (mode='')

iter:  50 02:13:11   -45.385758c -3.46  -4.26c
iter:  51 02:13:44   -45.385765c -3.51  -4.28c
iter:  52 02:14:08   -45.385783c -3.54  -3.15
iter:  53 02:14:21   -45.385794c -3.57  -4.45c
iter:  54 02:14:29   -45.385804c -3.63  -4.22c
Writing to output.gpw (mode='')

iter:  55 02:14:37   -45.385814c -3.66  -4.36c
iter:  56 02:14:38   -45.385823c -3.66  -4.44c
iter:  57 02:14:47   -45.385831c -3.73  -3.39
iter:  58 02:14:56   -45.385838c -3.81  -3.59
iter:  59 02:14:59   -45.385845c -3.80  -4.13c
Writing to output.gpw (mode='')

iter:  60 02:15:01   -45.385850c -3.89  -4.33c
iter:  61 02:15:03   -45.385855c -3.93  -3.92
iter:  62 02:15:05   -45.385860c -3.98  -4.42c
iter:  63 02:15:06   -45.385864c -3.99  -4.68c
iter:  64 02:15:08   -45.385869c -4.01  -4.89c
Writing to output.gpw (mode='')

iter:  65 02:15:11   -45.385873c -4.06  -4.53c
iter:  66 02:15:12   -45.385876c -4.11  -4.53c
iter:  67 02:15:15   -45.385879c -4.15  -4.41c
iter:  68 02:15:16   -45.385882c -4.21  -4.24c
iter:  69 02:15:18   -45.385885c -4.23  -4.21c
Writing to output.gpw (mode='')

iter:  70 02:15:19   -45.385887c -4.28  -4.09c
iter:  71 02:15:19   -45.385889c -4.40  -4.04c
iter:  72 02:15:20   -45.385891c -4.41  -4.03c
iter:  73 02:15:21   -45.385893c -4.40  -4.04c
iter:  74 02:15:22   -45.385894c -4.44  -3.97
Writing to output.gpw (mode='')

iter:  75 02:15:23   -45.385896c -4.50  -3.95
iter:  76 02:15:33   -45.385897c -4.54  -3.90
iter:  77 02:15:35   -45.385899c -4.54  -3.92
iter:  78 02:15:37   -45.385900c -4.61  -3.98
iter:  79 02:15:38   -45.385901c -4.61  -4.04c
Writing to output.gpw (mode='')

iter:  80 02:15:40   -45.385902c -4.66  -4.32c
iter:  81 02:15:41   -45.385903c -4.71  -4.58c
iter:  82 02:15:43   -45.385904c -4.75  -4.25c
iter:  83 02:15:44   -45.385905c -4.78  -5.05c
iter:  84 02:15:46   -45.385905c -4.81  -5.10c
Writing to output.gpw (mode='')

iter:  85 02:16:15   -45.385906c -4.89  -5.05c
iter:  86 02:16:28   -45.385906c -4.92  -5.02c
iter:  87 02:16:30   -45.385907c -4.94  -4.99c
iter:  88 02:16:32   -45.385907c -5.06  -4.97c
iter:  89 02:16:34   -45.385908c -5.10  -4.59c
Writing to output.gpw (mode='')

iter:  90 02:16:35   -45.385908c -5.05  -4.78c
iter:  91 02:16:37   -45.385909c -5.15  -4.67c
iter:  92 02:16:39   -45.385909c -5.13  -5.35c
iter:  93 02:16:41   -45.385909c -5.15  -5.26c
iter:  94 02:16:43   -45.385910c -5.21  -5.20c
Writing to output.gpw (mode='')

iter:  95 02:16:44   -45.385910c -5.23  -4.92c
iter:  96 02:16:46   -45.385910c -5.29  -5.24c
iter:  97 02:16:48   -45.385910c -5.30  -5.25c
iter:  98 02:16:50   -45.385910c -5.31  -5.17c
iter:  99 02:16:52   -45.385911c -5.39  -5.30c
Writing to output.gpw (mode='')

iter: 100 02:16:53   -45.385911c -5.41  -5.06c
iter: 101 02:16:54   -45.385911c -5.47  -4.97c
iter: 102 02:16:55   -45.385911c -5.52  -6.51c
iter: 103 02:16:56   -45.385911c -5.54  -5.58c
iter: 104 02:16:58   -45.385911c -5.53  -5.46c
Writing to output.gpw (mode='')

iter: 105 02:16:59   -45.385911c -5.57  -5.17c
iter: 106 02:17:05   -45.385912c -5.61  -5.08c
iter: 107 02:17:07   -45.385912c -5.63  -5.02c
iter: 108 02:17:09   -45.385912c -5.64  -4.99c
iter: 109 02:17:11   -45.385912c -5.77  -5.07c
Writing to output.gpw (mode='')

iter: 110 02:17:13   -45.385912c -5.77  -4.92c
iter: 111 02:17:14   -45.385912c -5.77  -4.91c
iter: 112 02:17:16   -45.385912c -5.76  -4.90c
iter: 113 02:17:17   -45.385912c -5.81  -5.01c
iter: 114 02:17:19   -45.385912c -5.86  -5.16c
Writing to output.gpw (mode='')

iter: 115 02:17:21   -45.385912c -5.91  -5.22c
iter: 116 02:17:22   -45.385912c -5.99  -5.30c
iter: 117 02:17:23   -45.385912c -5.96  -5.41c
iter: 118 02:17:24   -45.385912c -6.05  -5.25c
iter: 119 02:17:25   -45.385912c -6.16  -6.03c
Writing to output.gpw (mode='')

iter: 120 02:17:26   -45.385912c -6.18  -5.65c
iter: 121 02:17:27   -45.385913c -6.09  -5.48c
iter: 122 02:17:28   -45.385913c -6.19  -5.40c
iter: 123 02:17:39   -45.385913c -6.19  -5.43c
iter: 124 02:17:41   -45.385913c -6.26  -5.23c
Writing to output.gpw (mode='')

iter: 125 02:17:43   -45.385913c -6.24  -5.49c
iter: 126 02:17:47   -45.385913c -6.29  -5.48c
iter: 127 02:17:48   -45.385913c -6.32  -5.99c
iter: 128 02:17:49   -45.385913c -6.41  -5.92c
iter: 129 02:17:50   -45.385913c -6.58  -5.53c
Writing to output.gpw (mode='')

iter: 130 02:17:52   -45.385913c -6.52  -5.50c
iter: 131 02:18:01   -45.385913c -6.61  -5.99c
iter: 132 02:18:09   -45.385913c -6.59  -6.13c
iter: 133 02:18:17   -45.385913c -6.54  -6.90c
iter: 134 02:18:29   -45.385913c -6.63  -6.47c
Writing to output.gpw (mode='')

iter: 135 02:19:05   -45.385913c -6.69  -6.34c
iter: 136 02:19:12   -45.385913c -6.71  -5.92c
iter: 137 02:19:13   -45.385913c -6.78  -5.74c
iter: 138 02:19:15   -45.385913c -6.77  -5.75c
iter: 139 02:19:17   -45.385913c -6.84  -5.67c
Writing to output.gpw (mode='')

iter: 140 02:19:18   -45.385913c -6.90  -5.53c
iter: 141 02:19:19   -45.385913c -6.97  -5.52c
iter: 142 02:19:20   -45.385913c -7.02  -5.48c
iter: 143 02:19:22   -45.385913c -6.99  -5.47c
iter: 144 02:19:23   -45.385913c -7.00  -5.43c
Writing to output.gpw (mode='')

iter: 145 02:19:25   -45.385913c -7.04  -5.32c
iter: 146 02:19:27   -45.385913c -7.17  -5.44c
iter: 147 02:19:29   -45.385913c -7.15  -5.42c
iter: 148 02:19:30   -45.385913c -7.21  -5.34c
iter: 149 02:19:32   -45.385913c -7.18  -5.37c
Writing to output.gpw (mode='')

iter: 150 02:19:35   -45.385913c -7.32  -5.35c
iter: 151 02:19:36   -45.385913c -7.29  -5.40c
iter: 152 02:19:37   -45.385913c -7.33  -5.28c
iter: 153 02:19:38   -45.385913c -7.40c -5.42c

Converged after 153 iterations.

Dipole moment: (-1.315471, -1.315471, -1.315471) |e|*Ang

Energy contributions relative to reference atoms: (reference = -18510.869232)

Kinetic:        +10.392471
Potential:       -8.616253
External:        +0.000000
XC:             -46.689611
Entropy (-ST):   -0.000000
Local:           -0.472520
--------------------------
Free energy:    -45.385913
Extrapolated:   -45.385913

Showing only first 2 kpts
 Kpt  Band  Eigenvalues  Occupancy
  0     3    -20.42321    2.00000
  0     4     -0.91299    2.00000

  1     3    -20.42647    2.00000
  1     4     -0.37966    2.00000


Fermi level: inf

Writing to output.gpw (mode='')


Forces in eV/Ang:
  0 Ca   -0.00000    0.00000   -0.00000

Timing:                              incl.     excl.
-----------------------------------------------------------
Forces:                              0.072     0.072   0.0% |
Hamiltonian:                         6.386     0.000   0.0% |
 Atomic:                             0.149     0.149   0.0% |
  XC Correction:                     0.000     0.000   0.0% |
 Calculate atomic Hamiltonians:      0.001     0.001   0.0% |
 Communicate:                        0.000     0.000   0.0% |
 Hartree integrate/restrict:         0.000     0.000   0.0% |
 Initialize Hamiltonian:             0.000     0.000   0.0% |
 Poisson:                            0.022     0.001   0.0% |
  Communicate from 1D:               0.005     0.005   0.0% |
  Communicate from 2D:               0.005     0.005   0.0% |
  Communicate to 1D:                 0.005     0.005   0.0% |
  Communicate to 2D:                 0.005     0.005   0.0% |
  FFT 1D:                            0.000     0.000   0.0% |
  FFT 2D:                            0.001     0.001   0.0% |
 XC 3D grid:                         6.213     0.028   0.0% |
  VdW-DF integral:                   6.186     0.004   0.0% |
   Convolution:                      0.005     0.005   0.0% |
   FFT:                              0.002     0.002   0.0% |
   gather:                           0.035     0.035   0.0% |
   hmm1:                             0.005     0.005   0.0% |
   hmm2:                             0.004     0.004   0.0% |
   iFFT:                             0.003     0.003   0.0% |
   potential:                        0.035     0.001   0.0% |
    collect:                         0.007     0.007   0.0% |
    p1:                              0.017     0.017   0.0% |
    p2:                              0.005     0.005   0.0% |
    sum:                             0.006     0.006   0.0% |
   splines:                          6.093     6.093   1.2% |
 vbar:                               0.000     0.000   0.0% |
LCAO initialization:                 0.155     0.044   0.0% |
 LCAO eigensolver:                   0.043     0.001   0.0% |
  Calculate projections:             0.000     0.000   0.0% |
  DenseAtomicCorrection:             0.001     0.001   0.0% |
  Distribute overlap matrix:         0.001     0.001   0.0% |
  Orbital Layouts:                   0.033     0.033   0.0% |
  Potential matrix:                  0.003     0.003   0.0% |
  Sum over cells:                    0.003     0.003   0.0% |
 LCAO to grid:                       0.004     0.004   0.0% |
 Set positions (LCAO WFS):           0.065     0.006   0.0% |
  Basic WFS set positions:           0.004     0.004   0.0% |
  Basis functions set positions:     0.000     0.000   0.0% |
  P tci:                             0.013     0.013   0.0% |
  ST tci:                            0.025     0.025   0.0% |
  mktci:                             0.016     0.016   0.0% |
SCF-cycle:                         486.562    62.758  12.7% |----|
 Davidson:                         136.768    79.774  16.1% |-----|
  Apply hamiltonian:                10.564    10.564   2.1% ||
  Subspace diag:                    16.994     0.156   0.0% |
   calc_h_matrix:                   14.180     0.444   0.1% |
    Apply hamiltonian:              13.736    13.736   2.8% ||
   diagonalize:                      2.431     2.431   0.5% |
   rotate_psi:                       0.226     0.226   0.0% |
  calc. matrices:                   27.617    10.069   2.0% ||
   Apply hamiltonian:               17.548    17.548   3.5% ||
  diagonalize:                       0.540     0.540   0.1% |
  rotate_psi:                        1.279     1.279   0.3% |
 Density:                           13.220     0.004   0.0% |
  Atomic density matrices:           1.287     1.287   0.3% |
  Mix:                               4.458     4.458   0.9% |
  Multipole moments:                 0.041     0.041   0.0% |
  Pseudo density:                    7.431     0.098   0.0% |
   Symmetrize density:               7.333     7.333   1.5% ||
 Hamiltonian:                      273.780     0.015   0.0% |
  Atomic:                           24.696    24.695   5.0% |-|
   XC Correction:                    0.001     0.001   0.0% |
  Calculate atomic Hamiltonians:     0.374     0.374   0.1% |
  Communicate:                       0.126     0.126   0.0% |
  Hartree integrate/restrict:        0.939     0.939   0.2% |
  Poisson:                           6.436     0.268   0.1% |
   Communicate from 1D:              1.443     1.443   0.3% |
   Communicate from 2D:              2.207     2.207   0.4% |
   Communicate to 1D:                1.023     1.023   0.2% |
   Communicate to 2D:                1.385     1.385   0.3% |
   FFT 1D:                           0.027     0.027   0.0% |
   FFT 2D:                           0.083     0.083   0.0% |
  XC 3D grid:                      241.187    10.642   2.2% ||
   VdW-DF integral:                230.545     0.358   0.1% |
    Convolution:                     0.775     0.775   0.2% |
    FFT:                             0.334     0.334   0.1% |
    gather:                        208.590   208.590  42.1% |----------------|
    hmm1:                            0.651     0.651   0.1% |
    hmm2:                            0.623     0.623   0.1% |
    iFFT:                            0.431     0.431   0.1% |
    potential:                      18.782     0.096   0.0% |
     collect:                        2.560     2.560   0.5% |
     p1:                             2.651     2.651   0.5% |
     p2:                             0.929     0.929   0.2% |
     sum:                           12.546    12.546   2.5% ||
    splines:                         0.001     0.001   0.0% |
  vbar:                              0.007     0.007   0.0% |
 Orthonormalize:                     0.035     0.001   0.0% |
  calc_s_matrix:                     0.004     0.004   0.0% |
  inverse-cholesky:                  0.025     0.025   0.0% |
  projections:                       0.004     0.004   0.0% |
  rotate_psi_s:                      0.001     0.001   0.0% |
Set symmetry:                        0.041     0.041   0.0% |
Other:                               1.708     1.708   0.3% |
-----------------------------------------------------------
Total:                                       494.925 100.0%

Memory usage: 147.50 MiB
Date: Wed Nov 23 02:19:38 2022
