
  ___ ___ ___ _ _ _  
 |   |   |_  | | | | 
 | | | | | . | | | | 
 |__ |  _|___|_____|  22.8.0
 |___|_|             

User:   vazumah@c17.hercules
Date:   Tue Jan 17 23:03:42 2023
Arch:   x86_64
Pid:    5828
CWD:    /home/vazumah/Python_projects/LiNRR/autocad_start/slab_experiments/free_slabs/K/bcc111/substrate
Python: 3.10.8
gpaw:   /home/vazumah/.conda/envs/GPAW/lib/python3.10/site-packages/gpaw
_gpaw:  /home/vazumah/.conda/envs/GPAW/lib/python3.10/site-packages/
        _gpaw.cpython-310-x86_64-linux-gnu.so
ase:    /home/vazumah/.conda/envs/GPAW/lib/python3.10/site-packages/ase (version 3.22.1)
numpy:  /home/vazumah/.conda/envs/GPAW/lib/python3.10/site-packages/numpy (version 1.24.1)
scipy:  /home/vazumah/.conda/envs/GPAW/lib/python3.10/site-packages/scipy (version 1.10.0)
libxc:  5.2.3
units:  Angstrom and eV
cores: 24
OpenMP: True
OMP_NUM_THREADS: 1

Input parameters:
  eigensolver: {name: dav,
                niter: 3}
  h: 0.16
  kpts: {size: [2, 2, 1]}
  maxiter: 999
  mixer: {backend: pulay,
          beta: 0.02,
          method: separate,
          nmaxold: 5,
          weight: 100}
  occupations: {name: fermi-dirac,
                width: 0.05}
  poissonsolver: {dipolelayer: xy}
  xc: BEEF-vdW

System changes: positions, numbers, cell, pbc, initial_charges, initial_magmoms 

Initialize ...

species:
  K:
    name: Potassium
    id: 04190408da443a44668134082ce1c192
    Z: 19.0
    valence: 9
    core: 10
    charge: 0.0
    file: /home/vazumah/.conda/envs/GPAW/share/gpaw/K.PBE.gz
    compensation charges: {type: gauss,
                           rc: 0.35,
                           lmax: 2}
    cutoffs: {filter: 1.91,
              core: 1.27}
    valence states:
      #              energy  rcut
      - 3s(2.00)   -35.338   1.122
      - 4s(1.00)    -2.319   1.122
      - 3p(6.00)   -18.813   1.106
      -  p           8.398   1.106
      -  d           0.000   0.937
  
    # Using partial waves for K as LCAO basis

Reference energy: -589761.115863  # eV

Spin-paired calculation

Convergence criteria:
 Maximum [total energy] change in last 3 cyles: 0.0005 eV / electron
 Maximum integral of absolute [dens]ity change: 0.0001 electrons / valence electron
 Maximum integral of absolute [eigenst]ate change: 4e-08 eV^2 / valence electron
 Maximum number of scf [iter]ations: 999
 (Square brackets indicate name in SCF output, whereas a 'c' in
 the SCF output indicates the quantity has converged.)

Symmetries present (total): 12

  ( 1  0  0)  ( 1  0  0)  ( 1 -1  0)  ( 1 -1  0)  ( 0  1  0)  ( 0  1  0)
  ( 1 -1  0)  ( 0  1  0)  ( 1  0  0)  ( 0 -1  0)  ( 1  0  0)  (-1  1  0)
  ( 0  0 -1)  ( 0  0  1)  ( 0  0 -1)  ( 0  0  1)  ( 0  0  1)  ( 0  0 -1)

  ( 0 -1  0)  ( 0 -1  0)  (-1  1  0)  (-1  1  0)  (-1  0  0)  (-1  0  0)
  ( 1 -1  0)  (-1  0  0)  ( 0  1  0)  (-1  0  0)  ( 0 -1  0)  (-1  1  0)
  ( 0  0  1)  ( 0  0 -1)  ( 0  0 -1)  ( 0  0  1)  ( 0  0 -1)  ( 0  0  1)
Note: your k-points are not as symmetric as your crystal!

4 k-points: 2 x 2 x 1 Monkhorst-Pack grid
2 k-points in the irreducible part of the Brillouin zone
       k-points in crystal coordinates                weights
   0:     0.25000000   -0.25000000    0.00000000          2/4
   1:     0.25000000    0.25000000    0.00000000          2/4

Wave functions: Uniform real-space grid
  Kinetic energy operator: 8*3+1=25 point O(h^6) finite-difference Laplacian
  ScaLapack parameters: grid=1x1, blocksize=None
  Wavefunction extrapolation:
    Improved wavefunction reuse through dual PAW basis 

Occupation numbers: Fermi-Dirac:
  width: 0.0500  # eV
 

Eigensolver
   Davidson(niter=3) 

Densities:
  Coarse grid: 120*120*152 grid
  Fine grid: 240*240*304 grid
  Total Charge: 0.000000 

Density mixing:
  Method: separate
  Backend: pulay
  Linear mixing parameter: 0.02
  old densities: 5
  Damping of long wavelength oscillations: 100 

Hamiltonian:
  XC and Coulomb potentials evaluated on a 240*240*304 grid
  Using the BEEF-vdW Exchange-Correlation functional
  Interpolation: tri-quintic (5. degree polynomial)
  Poisson solver: FastPoissonSolver using
    Stencil: 8*3+1=25 point O(h^6) finite-difference Laplacian
    FFT axes: [0, 1]
    FST axes: [2]

Dipole correction along z-axis 

XC parameters: BEEF-vdW with 2 nearest neighbor stencil

Memory estimate:
  Process memory now: 214.26 MiB
  Calculator: 1100.16 MiB
    Density: 66.13 MiB
      Arrays: 36.04 MiB
      Localized functions: 16.36 MiB
      Mixer: 13.73 MiB
    Hamiltonian: 24.68 MiB
      Arrays: 23.57 MiB
      XC: 0.00 MiB
      Poisson: 0.00 MiB
      vbar: 1.11 MiB
    Wavefunctions: 1009.36 MiB
      Arrays psit_nG: 494.38 MiB
      Eigensolver: 513.07 MiB
      Projections: 0.11 MiB
      Projectors: 1.80 MiB

Total number of cores used: 24
Parallelization over k-points: 2
Domain decomposition: 2 x 2 x 3

Number of atoms: 36
Number of atomic orbitals: 180
Number of bands in calculation: 180
Number of valence electrons: 324
Bands to converge: occupied

... initialized

Initializing position-dependent things.

Density initialized from atomic densities
Creating initial wave functions:
  180 bands from LCAO basis set

                                                                                          
                                                                                          
                                                                                          
                                                                                          
                                                                                          
                                    K                 K                 K                 
                                 K                 K                 K                    
                                                                                          
                                           K                 K                  K         
                       K                 K                 K                              
                    K                 K                 K                                 
                                                                                          
                              K  K               K K               K K                    
          K                 K                 K                                           
       K                 K                 K                                              
                    K                 K                 K                                 
                 K                  K                 K                                   
                                                                                          
                                                                                          
       K                 K                 K                                              
                                                                                          
                                                                                          
                                                                                          
                                                                                          

Positions:
   0 K      0.000000    0.000000   10.000000    ( 0.0000,  0.0000,  0.0000)
   1 K      7.396337    0.000000   10.000000    ( 0.0000,  0.0000,  0.0000)
   2 K     14.792674    0.000000   10.000000    ( 0.0000,  0.0000,  0.0000)
   3 K      3.698168    6.405416   10.000000    ( 0.0000,  0.0000,  0.0000)
   4 K     11.094505    6.405416   10.000000    ( 0.0000,  0.0000,  0.0000)
   5 K     18.490842    6.405416   10.000000    ( 0.0000,  0.0000,  0.0000)
   6 K      7.396337   12.810831   10.000000    ( 0.0000,  0.0000,  0.0000)
   7 K     14.792674   12.810831   10.000000    ( 0.0000,  0.0000,  0.0000)
   8 K     22.189011   12.810831   10.000000    ( 0.0000,  0.0000,  0.0000)
   9 K      3.698168    2.135139   11.509771    ( 0.0000,  0.0000,  0.0000)
  10 K     11.094505    2.135139   11.509771    ( 0.0000,  0.0000,  0.0000)
  11 K     18.490842    2.135139   11.509771    ( 0.0000,  0.0000,  0.0000)
  12 K      7.396337    8.540554   11.509771    ( 0.0000,  0.0000,  0.0000)
  13 K     14.792674    8.540554   11.509771    ( 0.0000,  0.0000,  0.0000)
  14 K     22.189011    8.540554   11.509771    ( 0.0000,  0.0000,  0.0000)
  15 K     11.094505   14.945970   11.509771    ( 0.0000,  0.0000,  0.0000)
  16 K     18.490842   14.945970   11.509771    ( 0.0000,  0.0000,  0.0000)
  17 K     25.887179   14.945970   11.509771    ( 0.0000,  0.0000,  0.0000)
  18 K      0.000000    4.270277   13.019542    ( 0.0000,  0.0000,  0.0000)
  19 K      7.396337    4.270277   13.019542    ( 0.0000,  0.0000,  0.0000)
  20 K     14.792674    4.270277   13.019542    ( 0.0000,  0.0000,  0.0000)
  21 K      3.698168   10.675693   13.019542    ( 0.0000,  0.0000,  0.0000)
  22 K     11.094505   10.675693   13.019542    ( 0.0000,  0.0000,  0.0000)
  23 K     18.490842   10.675693   13.019542    ( 0.0000,  0.0000,  0.0000)
  24 K      7.396337   17.081108   13.019542    ( 0.0000,  0.0000,  0.0000)
  25 K     14.792674   17.081108   13.019542    ( 0.0000,  0.0000,  0.0000)
  26 K     22.189011   17.081108   13.019542    ( 0.0000,  0.0000,  0.0000)
  27 K      0.000000    0.000000   14.529313    ( 0.0000,  0.0000,  0.0000)
  28 K      7.396337    0.000000   14.529313    ( 0.0000,  0.0000,  0.0000)
  29 K     14.792674    0.000000   14.529313    ( 0.0000,  0.0000,  0.0000)
  30 K      3.698168    6.405416   14.529313    ( 0.0000,  0.0000,  0.0000)
  31 K     11.094505    6.405416   14.529313    ( 0.0000,  0.0000,  0.0000)
  32 K     18.490842    6.405416   14.529313    ( 0.0000,  0.0000,  0.0000)
  33 K      7.396337   12.810831   14.529313    ( 0.0000,  0.0000,  0.0000)
  34 K     14.792674   12.810831   14.529313    ( 0.0000,  0.0000,  0.0000)
  35 K     22.189011   12.810831   14.529313    ( 0.0000,  0.0000,  0.0000)

Unit cell:
           periodic     x           y           z      points  spacing
  1. axis:    yes   22.189011    0.000000    0.000000   120     0.1601
  2. axis:    yes   11.094505   19.216247    0.000000   120     0.1601
  3. axis:    no     0.000000    0.000000   24.529313   152     0.1614

  Lengths:  22.189011  22.189011  24.529313
  Angles:   90.000000  90.000000  60.000000

Effective grid spacing dv^(1/3) = 0.1684

     iter     time        total  log10-change:
                         energy  eigst   dens
iter:   1 23:22:31 -1457.267905
iter:   2 23:39:03 -1459.557274  +0.01  -1.38
iter:   3 23:55:48 -1459.797180  -0.49  -1.37
iter:   4 00:12:59 -1456.589429  -0.76  -1.38
Writing to output.gpw (mode='')

iter:   5 00:29:55 -1456.832791  -1.04  -1.64
iter:   6 00:47:00 -1457.008864  -1.44  -1.64
iter:   7 01:04:12 -1456.971445  -1.64  -1.60
iter:   8 01:21:18 -1457.045225c -1.65  -2.24
iter:   9 01:38:18 -1457.084217c -1.97  -2.33
Writing to output.gpw (mode='')

iter:  10 01:55:03 -1457.048335c -2.15  -2.25
iter:  11 02:11:46 -1457.040081c -2.55  -2.44
iter:  12 02:28:38 -1457.048030c -2.60  -2.68
iter:  13 02:45:41 -1457.052864c -2.86  -2.65
iter:  14 03:02:40 -1457.053694c -2.99  -2.66
Writing to output.gpw (mode='')

iter:  15 03:14:52 -1457.060098c -3.14  -2.80
iter:  16 03:31:49 -1457.058052c -3.09  -2.85
iter:  17 03:48:41 -1457.059682c -3.09  -3.16
iter:  18 04:05:41 -1457.060261c -3.33  -3.02
iter:  19 04:21:36 -1457.060697c -3.55  -3.02
Writing to output.gpw (mode='')

iter:  20 04:38:23 -1457.060701c -3.79  -2.99
iter:  21 04:55:14 -1457.064365c -3.77  -3.03
iter:  22 05:12:32 -1457.062543c -3.94  -2.83
iter:  23 05:29:22 -1457.061397c -4.37  -2.87
iter:  24 05:46:17 -1457.061331c -4.49  -2.94
Writing to output.gpw (mode='')

iter:  25 06:03:29 -1457.060193c -4.23  -2.95
iter:  26 06:20:51 -1457.059944c -4.21  -3.07
iter:  27 06:37:33 -1457.059818c -4.25  -3.10
iter:  28 06:54:22 -1457.059919c -4.85  -3.09
iter:  29 07:11:06 -1457.060792c -4.71  -3.09
Writing to output.gpw (mode='')

iter:  30 07:27:58 -1457.060886c -4.86  -3.16
iter:  31 07:44:21 -1457.061357c -5.11  -3.16
iter:  32 08:01:18 -1457.062202c -4.88  -3.22
iter:  33 08:18:02 -1457.062290c -5.04  -3.31
iter:  34 08:34:43 -1457.062335c -5.20  -3.28
Writing to output.gpw (mode='')

iter:  35 08:51:35 -1457.062631c -4.66  -3.28
iter:  36 09:08:31 -1457.062752c -4.84  -3.50
iter:  37 09:25:45 -1457.062752c -5.33  -3.71
iter:  38 09:42:39 -1457.062677c -5.55  -3.61
iter:  39 09:59:28 -1457.062797c -5.60  -3.54
Writing to output.gpw (mode='')

iter:  40 10:16:08 -1457.062689c -5.74  -3.69
iter:  41 10:33:10 -1457.062822c -5.75  -3.61
iter:  42 10:50:05 -1457.062809c -5.85  -3.61
iter:  43 11:07:01 -1457.062798c -6.16  -3.68
iter:  44 11:24:06 -1457.062826c -6.20  -3.68
Writing to output.gpw (mode='')

iter:  45 11:40:55 -1457.062858c -6.27  -3.69
iter:  46 11:57:39 -1457.062887c -6.32  -3.71
iter:  47 12:14:43 -1457.062907c -6.31  -3.73
iter:  48 12:31:27 -1457.062915c -6.07  -3.75
iter:  49 12:48:16 -1457.062913c -6.18  -3.74
Writing to output.gpw (mode='')

iter:  50 13:05:02 -1457.062897c -6.10  -3.74
iter:  51 13:21:40 -1457.062898c -6.18  -3.91
iter:  52 13:37:25 -1457.062892c -6.47  -4.03c
iter:  53 13:53:56 -1457.062912c -6.29  -3.98
iter:  54 14:11:04 -1457.062912c -6.37  -4.15c
Writing to output.gpw (mode='')

iter:  55 14:28:09 -1457.062886c -6.36  -4.16c
iter:  56 14:45:21 -1457.062889c -6.57  -4.10c
iter:  57 15:02:42 -1457.062897c -6.48  -4.12c
iter:  58 15:20:01 -1457.062892c -6.81  -4.27c
iter:  59 15:37:15 -1457.062888c -7.21  -4.30c
Writing to output.gpw (mode='')

iter:  60 15:54:32 -1457.062904c -6.82  -4.29c
iter:  61 16:11:45 -1457.062904c -6.98  -4.45c
iter:  62 16:29:06 -1457.062906c -7.33  -4.52c
iter:  63 16:46:22 -1457.062902c -7.33  -4.55c
iter:  64 17:03:26 -1457.062899c -7.52c -4.76c

Converged after 64 iterations.

Dipole moment: (-52.351123, -30.224935, 0.000000) |e|*Ang

Energy contributions relative to reference atoms: (reference = -589761.115863)

Kinetic:       +178.524819
Potential:     -133.845523
External:        +0.000000
XC:            -1477.245588
Entropy (-ST):   -0.331955
Local:          -24.330629
--------------------------
Free energy:   -1457.228877
Extrapolated:  -1457.062899

Dipole-layer corrected work functions: 2.477770, 2.477770 eV

Showing all kpts
 Kpt  Band  Eigenvalues  Occupancy
  0   160     -2.46399    0.86308
  0   161     -2.46399    0.86308
  0   162     -2.41362    0.43407
  0   163     -2.35349    0.15374

  1   160     -2.58157    1.77711
  1   161     -2.58157    1.77711
  1   162     -2.49118    1.13327
  1   163     -2.49118    1.13327


Fermi level: -2.47777

No gap
Writing to output.gpw (mode='')


Forces in eV/Ang:
  0 K     0.00000   -0.00000    0.00024
  1 K    -0.00000    0.00000    0.00024
  2 K     0.00000    0.00000    0.00024
  3 K    -0.00000   -0.00000    0.00024
  4 K     0.00000   -0.00000    0.00024
  5 K     0.00000   -0.00000    0.00024
  6 K     0.00000    0.00000    0.00024
  7 K    -0.00000    0.00000    0.00024
  8 K     0.00000    0.00000    0.00024
  9 K    -0.00000   -0.00000    0.03969
 10 K     0.00000   -0.00000    0.03969
 11 K     0.00000   -0.00000    0.03969
 12 K    -0.00000    0.00000    0.03969
 13 K     0.00000    0.00000    0.03969
 14 K     0.00000   -0.00000    0.03969
 15 K     0.00000    0.00000    0.03969
 16 K    -0.00000    0.00000    0.03969
 17 K     0.00000    0.00000    0.03969
 18 K     0.00000   -0.00000   -0.03969
 19 K    -0.00000   -0.00000   -0.03969
 20 K     0.00000   -0.00000   -0.03969
 21 K     0.00000   -0.00000   -0.03969
 22 K     0.00000    0.00000   -0.03969
 23 K    -0.00000   -0.00000   -0.03969
 24 K     0.00000    0.00000   -0.03969
 25 K    -0.00000    0.00000   -0.03969
 26 K     0.00000    0.00000   -0.03969
 27 K    -0.00000    0.00000   -0.00024
 28 K    -0.00000   -0.00000   -0.00024
 29 K     0.00000   -0.00000   -0.00024
 30 K    -0.00000   -0.00000   -0.00024
 31 K     0.00000   -0.00000   -0.00024
 32 K     0.00000   -0.00000   -0.00024
 33 K     0.00000    0.00000   -0.00024
 34 K    -0.00000    0.00000   -0.00024
 35 K     0.00000   -0.00000   -0.00024

Timing:                              incl.     excl.
-----------------------------------------------------------
Forces:                             12.693    12.693   0.0% |
Hamiltonian:                       292.004     0.000   0.0% |
 Atomic:                             0.302     0.090   0.0% |
  XC Correction:                     0.211     0.211   0.0% |
 Calculate atomic Hamiltonians:      0.176     0.176   0.0% |
 Communicate:                        0.464     0.464   0.0% |
 Hartree integrate/restrict:         0.311     0.311   0.0% |
 Initialize Hamiltonian:             0.000     0.000   0.0% |
 Poisson:                            4.841     1.813   0.0% |
  Communicate from 1D:               1.102     1.102   0.0% |
  Communicate from 2D:               0.445     0.445   0.0% |
  Communicate to 1D:                 0.260     0.260   0.0% |
  Communicate to 2D:                 0.465     0.465   0.0% |
  FFT 1D:                            0.452     0.452   0.0% |
  FFT 2D:                            0.304     0.304   0.0% |
 XC 3D grid:                       285.864    13.773   0.0% |
  VdW-DF integral:                 272.091     0.915   0.0% |
   Convolution:                     23.610    23.610   0.0% |
   FFT:                              4.829     4.829   0.0% |
   gather:                         172.101   172.101   0.3% |
   hmm1:                             3.920     3.920   0.0% |
   hmm2:                             5.639     5.639   0.0% |
   iFFT:                             4.962     4.962   0.0% |
   potential:                       28.382     0.142   0.0% |
    collect:                         3.944     3.944   0.0% |
    p1:                             11.105    11.105   0.0% |
    p2:                              8.142     8.142   0.0% |
    sum:                             5.050     5.050   0.0% |
   splines:                         27.733    27.733   0.0% |
 vbar:                               0.046     0.046   0.0% |
LCAO initialization:                26.696     0.128   0.0% |
 LCAO eigensolver:                   0.626     0.001   0.0% |
  Calculate projections:             0.000     0.000   0.0% |
  DenseAtomicCorrection:             0.000     0.000   0.0% |
  Distribute overlap matrix:         0.466     0.466   0.0% |
  Orbital Layouts:                   0.139     0.139   0.0% |
  Potential matrix:                  0.019     0.019   0.0% |
  Sum over cells:                    0.001     0.001   0.0% |
 LCAO to grid:                      25.499    25.499   0.0% |
 Set positions (LCAO WFS):           0.442     0.277   0.0% |
  Basic WFS set positions:           0.060     0.060   0.0% |
  Basis functions set positions:     0.001     0.001   0.0% |
  P tci:                             0.000     0.000   0.0% |
  ST tci:                            0.043     0.043   0.0% |
  mktci:                             0.061     0.061   0.0% |
SCF-cycle:                       64444.912   259.917   0.4% |
 Davidson:                       47504.295 12673.386  19.6% |-------|
  Apply hamiltonian:              2588.257  2588.257   4.0% |-|
  Subspace diag:                  6223.946     0.012   0.0% |
   calc_h_matrix:                 2261.607  1022.940   1.6% ||
    Apply hamiltonian:            1238.667  1238.667   1.9% ||
   diagonalize:                    110.811   110.811   0.2% |
   rotate_psi:                    3851.515  3851.515   5.9% |-|
  calc. matrices:                15017.418 10610.883  16.4% |------|
   Apply hamiltonian:             4406.535  4406.535   6.8% |--|
  diagonalize:                     101.238   101.238   0.2% |
  rotate_psi:                    10900.050 10900.050  16.8% |------|
 Density:                          443.091     0.003   0.0% |
  Atomic density matrices:          14.881    14.881   0.0% |
  Mix:                              28.889    28.889   0.0% |
  Multipole moments:                 0.464     0.464   0.0% |
  Pseudo density:                  398.855    85.486   0.1% |
   Symmetrize density:             313.369   313.369   0.5% |
 Hamiltonian:                    16194.145     0.012   0.0% |
  Atomic:                           22.246     3.659   0.0% |
   XC Correction:                   18.587    18.587   0.0% |
  Calculate atomic Hamiltonians:    12.599    12.599   0.0% |
  Communicate:                      29.820    29.820   0.0% |
  Hartree integrate/restrict:       16.217    16.217   0.0% |
  Poisson:                         231.785    65.676   0.1% |
   Communicate from 1D:             33.230    33.230   0.1% |
   Communicate from 2D:             32.038    32.038   0.0% |
   Communicate to 1D:               19.366    19.366   0.0% |
   Communicate to 2D:               31.737    31.737   0.0% |
   FFT 1D:                          25.644    25.644   0.0% |
   FFT 2D:                          24.095    24.095   0.0% |
  XC 3D grid:                    15878.636   839.035   1.3% ||
   VdW-DF integral:              15039.602    55.739   0.1% |
    Convolution:                  1473.530  1473.530   2.3% ||
    FFT:                           315.963   315.963   0.5% |
    gather:                      10508.338 10508.338  16.2% |-----|
    hmm1:                          245.425   245.425   0.4% |
    hmm2:                          338.354   338.354   0.5% |
    iFFT:                          309.437   309.437   0.5% |
    potential:                    1792.815    10.673   0.0% |
     collect:                      277.033   277.033   0.4% |
     p1:                           695.739   695.739   1.1% |
     p2:                           481.409   481.409   0.7% |
     sum:                          327.961   327.961   0.5% |
    splines:                         0.001     0.001   0.0% |
  vbar:                              2.830     2.830   0.0% |
 Orthonormalize:                    43.463     0.000   0.0% |
  calc_s_matrix:                     6.236     6.236   0.0% |
  inverse-cholesky:                  6.611     6.611   0.0% |
  projections:                       0.000     0.000   0.0% |
  rotate_psi_s:                     30.616    30.616   0.0% |
Set symmetry:                        0.007     0.007   0.0% |
Other:                              23.585    23.585   0.0% |
-----------------------------------------------------------
Total:                                     64799.897 100.0%

Memory usage: 4.89 GiB
Date: Wed Jan 18 17:03:42 2023
