
  ___ ___ ___ _ _ _  
 |   |   |_  | | | | 
 | | | | | . | | | | 
 |__ |  _|___|_____|  22.8.0
 |___|_|             

User:   vazumah@c11.hercules
Date:   Wed Jan 18 13:25:43 2023
Arch:   x86_64
Pid:    11830
CWD:    /home/vazumah/Python_projects/LiNRR/autocad_start/slab_experiments/fixed_slab_def_vacuum/Na/bcc111/substrate
Python: 3.10.8
gpaw:   /home/vazumah/.conda/envs/GPAW/lib/python3.10/site-packages/gpaw
_gpaw:  /home/vazumah/.conda/envs/GPAW/lib/python3.10/site-packages/
        _gpaw.cpython-310-x86_64-linux-gnu.so
ase:    /home/vazumah/.conda/envs/GPAW/lib/python3.10/site-packages/ase (version 3.22.1)
numpy:  /home/vazumah/.conda/envs/GPAW/lib/python3.10/site-packages/numpy (version 1.24.1)
scipy:  /home/vazumah/.conda/envs/GPAW/lib/python3.10/site-packages/scipy (version 1.10.0)
libxc:  5.2.3
units:  Angstrom and eV
cores: 24
OpenMP: True
OMP_NUM_THREADS: 1

Input parameters:
  eigensolver: {name: dav,
                niter: 3}
  h: 0.16
  kpts: {size: [2, 2, 1]}
  maxiter: 999
  mixer: {backend: pulay,
          beta: 0.02,
          method: separate,
          nmaxold: 5,
          weight: 100}
  occupations: {name: fermi-dirac,
                width: 0.05}
  poissonsolver: {dipolelayer: xy}
  xc: BEEF-vdW

System changes: positions, numbers, cell, pbc, initial_charges, initial_magmoms 

Initialize ...

species:
  Na:
    name: Sodium
    id: d7ecbc49209718622bcbe287195dca2a
    Z: 11.0
    valence: 7
    core: 4
    charge: 0.0
    file: /home/vazumah/.conda/envs/GPAW/share/gpaw/Na.PBE.gz
    compensation charges: {type: gauss,
                           rc: 0.37,
                           lmax: 2}
    cutoffs: {filter: 2.17,
              core: 2.59}
    valence states:
      #              energy  rcut
      - 3s(1.00)    -2.744   1.201
      - 2p(6.00)   -28.672   1.217
      - 3p(0.00)    -0.743   1.217
      -  s          24.468   1.201
      -  d           0.000   1.238
  
    # Using partial waves for Na as LCAO basis

Reference energy: -159069.977916  # eV

Spin-paired calculation

Convergence criteria:
 Maximum [total energy] change in last 3 cyles: 0.0005 eV / electron
 Maximum integral of absolute [dens]ity change: 0.0001 electrons / valence electron
 Maximum integral of absolute [eigenst]ate change: 4e-08 eV^2 / valence electron
 Maximum number of scf [iter]ations: 999
 (Square brackets indicate name in SCF output, whereas a 'c' in
 the SCF output indicates the quantity has converged.)

Symmetries present (total): 12

  ( 1  0  0)  ( 1  0  0)  ( 1 -1  0)  ( 1 -1  0)  ( 0  1  0)  ( 0  1  0)
  ( 1 -1  0)  ( 0  1  0)  ( 1  0  0)  ( 0 -1  0)  ( 1  0  0)  (-1  1  0)
  ( 0  0 -1)  ( 0  0  1)  ( 0  0 -1)  ( 0  0  1)  ( 0  0  1)  ( 0  0 -1)

  ( 0 -1  0)  ( 0 -1  0)  (-1  1  0)  (-1  1  0)  (-1  0  0)  (-1  0  0)
  ( 1 -1  0)  (-1  0  0)  ( 0  1  0)  (-1  0  0)  ( 0 -1  0)  (-1  1  0)
  ( 0  0  1)  ( 0  0 -1)  ( 0  0 -1)  ( 0  0  1)  ( 0  0 -1)  ( 0  0  1)
Note: your k-points are not as symmetric as your crystal!

4 k-points: 2 x 2 x 1 Monkhorst-Pack grid
2 k-points in the irreducible part of the Brillouin zone
       k-points in crystal coordinates                weights
   0:     0.25000000   -0.25000000    0.00000000          2/4
   1:     0.25000000    0.25000000    0.00000000          2/4

Wave functions: Uniform real-space grid
  Kinetic energy operator: 8*3+1=25 point O(h^6) finite-difference Laplacian
  ScaLapack parameters: grid=1x1, blocksize=None
  Wavefunction extrapolation:
    Improved wavefunction reuse through dual PAW basis 

Occupation numbers: Fermi-Dirac:
  width: 0.0500  # eV
 

Eigensolver
   Davidson(niter=3) 

Densities:
  Coarse grid: 96*96*148 grid
  Fine grid: 192*192*296 grid
  Total Charge: 0.000000 

Density mixing:
  Method: separate
  Backend: pulay
  Linear mixing parameter: 0.02
  old densities: 5
  Damping of long wavelength oscillations: 100 

Hamiltonian:
  XC and Coulomb potentials evaluated on a 192*192*296 grid
  Using the BEEF-vdW Exchange-Correlation functional
  Interpolation: tri-quintic (5. degree polynomial)
  Poisson solver: FastPoissonSolver using
    Stencil: 8*3+1=25 point O(h^6) finite-difference Laplacian
    FFT axes: [0, 1]
    FST axes: [2]

Dipole correction along z-axis 

XC parameters: BEEF-vdW with 2 nearest neighbor stencil

Memory estimate:
  Process memory now: 164.95 MiB
  Calculator: 621.80 MiB
    Density: 53.02 MiB
      Arrays: 22.39 MiB
      Localized functions: 22.01 MiB
      Mixer: 8.61 MiB
    Hamiltonian: 16.26 MiB
      Arrays: 14.64 MiB
      XC: 0.00 MiB
      Poisson: 0.00 MiB
      vbar: 1.62 MiB
    Wavefunctions: 552.52 MiB
      Arrays psit_nG: 268.73 MiB
      Eigensolver: 281.07 MiB
      Projections: 0.09 MiB
      Projectors: 2.63 MiB

Total number of cores used: 24
Parallelization over k-points: 2
Domain decomposition: 2 x 2 x 3

Number of atoms: 36
Number of atomic orbitals: 252
Number of bands in calculation: 156
Number of valence electrons: 252
Bands to converge: occupied

... initialized

Initializing position-dependent things.

Density initialized from atomic densities
Creating initial wave functions:
  156 bands from LCAO basis set

                                                                            
                                                                            
                                                                            
                                                                            
                                                                            
                              Na             Na             Na              
                            Na             Na            Na                 
                                                                            
                    Na            Na Na          NaNa             Na        
                  Na            Na             Na                           
                            Na             Na            Na                 
         Na             NaNa           NaNa            Na                   
       Na             Na            Na                                      
                  Na            Na             Na                           
                Na            Na             Na                             
                                                                            
       Na             Na            Na                                      
                                                                            
                                                                            
                                                                            
                                                                            

Positions:
   0 Na     0.000000    0.000000   10.000000    ( 0.0000,  0.0000,  0.0000)
   1 Na     5.982123    0.000000   10.000000    ( 0.0000,  0.0000,  0.0000)
   2 Na    11.964247    0.000000   10.000000    ( 0.0000,  0.0000,  0.0000)
   3 Na     2.991062    5.180671   10.000000    ( 0.0000,  0.0000,  0.0000)
   4 Na     8.973185    5.180671   10.000000    ( 0.0000,  0.0000,  0.0000)
   5 Na    14.955308    5.180671   10.000000    ( 0.0000,  0.0000,  0.0000)
   6 Na     5.982123   10.361342   10.000000    ( 0.0000,  0.0000,  0.0000)
   7 Na    11.964247   10.361342   10.000000    ( 0.0000,  0.0000,  0.0000)
   8 Na    17.946370   10.361342   10.000000    ( 0.0000,  0.0000,  0.0000)
   9 Na     2.991062    1.726890   11.221096    ( 0.0000,  0.0000,  0.0000)
  10 Na     8.973185    1.726890   11.221096    ( 0.0000,  0.0000,  0.0000)
  11 Na    14.955308    1.726890   11.221096    ( 0.0000,  0.0000,  0.0000)
  12 Na     5.982123    6.907561   11.221096    ( 0.0000,  0.0000,  0.0000)
  13 Na    11.964247    6.907561   11.221096    ( 0.0000,  0.0000,  0.0000)
  14 Na    17.946370    6.907561   11.221096    ( 0.0000,  0.0000,  0.0000)
  15 Na     8.973185   12.088232   11.221096    ( 0.0000,  0.0000,  0.0000)
  16 Na    14.955308   12.088232   11.221096    ( 0.0000,  0.0000,  0.0000)
  17 Na    20.937432   12.088232   11.221096    ( 0.0000,  0.0000,  0.0000)
  18 Na     0.000000    3.453781   12.442192    ( 0.0000,  0.0000,  0.0000)
  19 Na     5.982123    3.453781   12.442192    ( 0.0000,  0.0000,  0.0000)
  20 Na    11.964247    3.453781   12.442192    ( 0.0000,  0.0000,  0.0000)
  21 Na     2.991062    8.634451   12.442192    ( 0.0000,  0.0000,  0.0000)
  22 Na     8.973185    8.634451   12.442192    ( 0.0000,  0.0000,  0.0000)
  23 Na    14.955308    8.634451   12.442192    ( 0.0000,  0.0000,  0.0000)
  24 Na     5.982123   13.815122   12.442192    ( 0.0000,  0.0000,  0.0000)
  25 Na    11.964247   13.815122   12.442192    ( 0.0000,  0.0000,  0.0000)
  26 Na    17.946370   13.815122   12.442192    ( 0.0000,  0.0000,  0.0000)
  27 Na     0.000000    0.000000   13.663287    ( 0.0000,  0.0000,  0.0000)
  28 Na     5.982123    0.000000   13.663287    ( 0.0000,  0.0000,  0.0000)
  29 Na    11.964247    0.000000   13.663287    ( 0.0000,  0.0000,  0.0000)
  30 Na     2.991062    5.180671   13.663287    ( 0.0000,  0.0000,  0.0000)
  31 Na     8.973185    5.180671   13.663287    ( 0.0000,  0.0000,  0.0000)
  32 Na    14.955308    5.180671   13.663287    ( 0.0000,  0.0000,  0.0000)
  33 Na     5.982123   10.361342   13.663287    ( 0.0000,  0.0000,  0.0000)
  34 Na    11.964247   10.361342   13.663287    ( 0.0000,  0.0000,  0.0000)
  35 Na    17.946370   10.361342   13.663287    ( 0.0000,  0.0000,  0.0000)

Unit cell:
           periodic     x           y           z      points  spacing
  1. axis:    yes   17.946370    0.000000    0.000000    96     0.1619
  2. axis:    yes    8.973185   15.542012    0.000000    96     0.1619
  3. axis:    no     0.000000    0.000000   23.663287   148     0.1599

  Lengths:  17.946370  17.946370  23.663287
  Angles:   90.000000  90.000000  60.000000

Effective grid spacing dv^(1/3) = 0.1691

     iter     time        total  log10-change:
                         energy  eigst   dens
iter:   1 13:37:03  -757.977207
iter:   2 13:47:21  -758.219058  -0.90  -1.45
iter:   3 13:57:27  -757.879948  -1.31  -1.47
iter:   4 14:07:35  -758.199250  -1.36  -1.68
Writing to output.gpw (mode='')

iter:   5 14:18:02  -759.088603  -1.12  -1.84
iter:   6 14:28:10  -758.081506  -1.54  -1.57
iter:   7 14:38:20  -758.112634  -2.31  -2.61
iter:   8 14:48:36  -758.110158c -2.83  -2.50
iter:   9 14:58:42  -758.111924c -2.90  -2.69
Writing to output.gpw (mode='')

iter:  10 15:08:56  -758.108642c -3.04  -2.66
iter:  11 15:18:55  -758.110855c -3.51  -3.20
iter:  12 15:28:52  -758.110664c -3.58  -3.25
iter:  13 15:39:16  -758.113560c -4.21  -3.30
iter:  14 15:49:47  -758.113222c -4.20  -3.01
Writing to output.gpw (mode='')

iter:  15 16:00:00  -758.111345c -4.90  -3.02
iter:  16 16:10:14  -758.111222c -4.86  -3.20
iter:  17 16:20:32  -758.111018c -5.19  -3.35
iter:  18 16:30:53  -758.111164c -5.42  -3.40
iter:  19 16:41:09  -758.111307c -5.63  -3.48
Writing to output.gpw (mode='')

iter:  20 16:51:34  -758.110688c -5.09  -3.52
iter:  21 17:01:56  -758.110809c -5.60  -3.52
iter:  22 17:12:28  -758.110875c -6.22  -3.55
iter:  23 17:20:24  -758.110852c -6.26  -3.56
iter:  24 17:24:15  -758.110823c -4.90  -3.57
Writing to output.gpw (mode='')

iter:  25 17:28:08  -758.110876c -5.59  -3.64
iter:  26 17:32:00  -758.110803c -6.05  -3.74
iter:  27 17:35:52  -758.110953c -6.34  -3.73
iter:  28 17:42:04  -758.111003c -6.48  -3.73
iter:  29 17:52:20  -758.111191c -5.77  -3.74
Writing to output.gpw (mode='')

iter:  30 18:02:40  -758.111113c -6.23  -3.70
iter:  31 18:12:52  -758.111079c -6.72  -3.70
iter:  32 18:23:11  -758.111134c -6.90  -3.72
iter:  33 18:33:53  -758.111085c -6.94  -3.71
iter:  34 18:44:12  -758.110828c -6.18  -3.72
Writing to output.gpw (mode='')

iter:  35 18:54:31  -758.110982c -6.62  -3.74
iter:  36 19:04:48  -758.111099c -6.51  -3.75
iter:  37 19:15:10  -758.110834c -5.58  -3.76
iter:  38 19:25:24  -758.110880c -5.74  -3.90
iter:  39 19:35:34  -758.110945c -6.62  -3.91
Writing to output.gpw (mode='')

iter:  40 19:44:12  -758.110821c -5.98  -3.92
iter:  41 19:48:04  -758.110885c -6.40  -3.87
iter:  42 19:51:54  -758.110907c -7.05  -3.92
iter:  43 19:55:47  -758.110920c -5.55  -3.93
iter:  44 19:59:39  -758.111034c -5.98  -4.00
Writing to output.gpw (mode='')

iter:  45 20:03:32  -758.111040c -6.23  -4.52c
iter:  46 20:07:23  -758.111041c -6.58  -4.68c
iter:  47 20:11:15  -758.111040c -6.95  -4.67c
iter:  48 20:15:07  -758.111040c -7.25  -4.67c
iter:  49 20:18:58  -758.111037c -7.65c -4.65c

Converged after 49 iterations.

Dipole moment: (-11.616929, -6.707037, -0.000000) |e|*Ang

Energy contributions relative to reference atoms: (reference = -159069.977916)

Kinetic:       +174.753043
Potential:     -156.080808
External:        +0.000000
XC:            -775.441728
Entropy (-ST):   -0.231916
Local:           -1.225587
--------------------------
Free energy:   -758.226995
Extrapolated:  -758.111037

Dipole-layer corrected work functions: 2.901288, 2.901288 eV

Showing all kpts
 Kpt  Band  Eigenvalues  Occupancy
  0   124     -2.87437    0.73710
  0   125     -2.87437    0.73709
  0   126     -2.79876    0.22797
  0   127     -2.72107    0.05297

  1   124     -3.07764    1.94289
  1   125     -3.07764    1.94289
  1   126     -2.92734    1.25478
  1   127     -2.92734    1.25478


Fermi level: -2.90129

No gap
