
  ___ ___ ___ _ _ _  
 |   |   |_  | | | | 
 | | | | | . | | | | 
 |__ |  _|___|_____|  22.8.0
 |___|_|             

User:   vazumah@c23.hercules
Date:   Tue Jan 17 05:46:54 2023
Arch:   x86_64
Pid:    30427
CWD:    /home/vazumah/Python_projects/LiNRR/autocad_start/bulk_relaxations/Na_bulk_bcc
Python: 3.10.8
gpaw:   /home/vazumah/.conda/envs/GPAW/lib/python3.10/site-packages/gpaw
_gpaw:  /home/vazumah/.conda/envs/GPAW/lib/python3.10/site-packages/
        _gpaw.cpython-310-x86_64-linux-gnu.so
ase:    /home/vazumah/.conda/envs/GPAW/lib/python3.10/site-packages/ase (version 3.22.1)
numpy:  /home/vazumah/.conda/envs/GPAW/lib/python3.10/site-packages/numpy (version 1.24.1)
scipy:  /home/vazumah/.conda/envs/GPAW/lib/python3.10/site-packages/scipy (version 1.10.0)
libxc:  5.2.3
units:  Angstrom and eV
cores: 24
OpenMP: True
OMP_NUM_THREADS: 1

Input parameters:
  h: 0.16
  kpts: {size: [2, 2, 1]}
  occupations: {name: fermi-dirac,
                width: 0.05}
  xc: BEEF-vdW

System changes: positions, numbers, cell, pbc, initial_charges, initial_magmoms 

Initialize ...

species:
  Na:
    name: Sodium
    id: d7ecbc49209718622bcbe287195dca2a
    Z: 11.0
    valence: 7
    core: 4
    charge: 0.0
    file: /home/vazumah/.conda/envs/GPAW/share/gpaw/Na.PBE.gz
    compensation charges: {type: gauss,
                           rc: 0.37,
                           lmax: 2}
    cutoffs: {filter: 2.17,
              core: 2.59}
    valence states:
      #              energy  rcut
      - 3s(1.00)    -2.744   1.201
      - 2p(6.00)   -28.672   1.217
      - 3p(0.00)    -0.743   1.217
      -  s          24.468   1.201
      -  d           0.000   1.238
  
    # Using partial waves for Na as LCAO basis

Reference energy: -4418.610498  # eV

Spin-paired calculation

Convergence criteria:
 Maximum [total energy] change in last 3 cyles: 0.0005 eV / electron
 Maximum integral of absolute [dens]ity change: 0.0001 electrons / valence electron
 Maximum integral of absolute [eigenst]ate change: 4e-08 eV^2 / valence electron
 Maximum number of scf [iter]ations: 333
 (Square brackets indicate name in SCF output, whereas a 'c' in
 the SCF output indicates the quantity has converged.)

Symmetries present (total): 48

  ( 1  1  1)  ( 1  1  1)  ( 1  1  1)  ( 1  1  1)  ( 1  1  1)  ( 1  1  1)
  ( 0  0 -1)  ( 0  0 -1)  ( 0 -1  0)  ( 0 -1  0)  (-1  0  0)  (-1  0  0)
  ( 0 -1  0)  (-1  0  0)  ( 0  0 -1)  (-1  0  0)  ( 0  0 -1)  ( 0 -1  0)

  ( 1  0  0)  ( 1  0  0)  ( 1  0  0)  ( 1  0  0)  ( 1  0  0)  ( 1  0  0)
  ( 0  1  0)  ( 0  1  0)  ( 0  0  1)  ( 0  0  1)  (-1 -1 -1)  (-1 -1 -1)
  ( 0  0  1)  (-1 -1 -1)  ( 0  1  0)  (-1 -1 -1)  ( 0  1  0)  ( 0  0  1)

  ( 0  1  0)  ( 0  1  0)  ( 0  1  0)  ( 0  1  0)  ( 0  1  0)  ( 0  1  0)
  ( 1  0  0)  ( 1  0  0)  ( 0  0  1)  ( 0  0  1)  (-1 -1 -1)  (-1 -1 -1)
  ( 0  0  1)  (-1 -1 -1)  ( 1  0  0)  (-1 -1 -1)  ( 1  0  0)  ( 0  0  1)

  ( 0  0  1)  ( 0  0  1)  ( 0  0  1)  ( 0  0  1)  ( 0  0  1)  ( 0  0  1)
  ( 1  0  0)  ( 1  0  0)  ( 0  1  0)  ( 0  1  0)  (-1 -1 -1)  (-1 -1 -1)
  ( 0  1  0)  (-1 -1 -1)  ( 1  0  0)  (-1 -1 -1)  ( 1  0  0)  ( 0  1  0)

  ( 0  0 -1)  ( 0  0 -1)  ( 0  0 -1)  ( 0  0 -1)  ( 0  0 -1)  ( 0  0 -1)
  ( 1  1  1)  ( 1  1  1)  ( 0 -1  0)  ( 0 -1  0)  (-1  0  0)  (-1  0  0)
  ( 0 -1  0)  (-1  0  0)  ( 1  1  1)  (-1  0  0)  ( 1  1  1)  ( 0 -1  0)

  ( 0 -1  0)  ( 0 -1  0)  ( 0 -1  0)  ( 0 -1  0)  ( 0 -1  0)  ( 0 -1  0)
  ( 1  1  1)  ( 1  1  1)  ( 0  0 -1)  ( 0  0 -1)  (-1  0  0)  (-1  0  0)
  ( 0  0 -1)  (-1  0  0)  ( 1  1  1)  (-1  0  0)  ( 1  1  1)  ( 0  0 -1)

  (-1  0  0)  (-1  0  0)  (-1  0  0)  (-1  0  0)  (-1  0  0)  (-1  0  0)
  ( 1  1  1)  ( 1  1  1)  ( 0  0 -1)  ( 0  0 -1)  ( 0 -1  0)  ( 0 -1  0)
  ( 0  0 -1)  ( 0 -1  0)  ( 1  1  1)  ( 0 -1  0)  ( 1  1  1)  ( 0  0 -1)

  (-1 -1 -1)  (-1 -1 -1)  (-1 -1 -1)  (-1 -1 -1)  (-1 -1 -1)  (-1 -1 -1)
  ( 1  0  0)  ( 1  0  0)  ( 0  1  0)  ( 0  1  0)  ( 0  0  1)  ( 0  0  1)
  ( 0  1  0)  ( 0  0  1)  ( 1  0  0)  ( 0  0  1)  ( 1  0  0)  ( 0  1  0)
Note: your k-points are not as symmetric as your crystal!

4 k-points: 2 x 2 x 1 Monkhorst-Pack grid
2 k-points in the irreducible part of the Brillouin zone
       k-points in crystal coordinates                weights
   0:     0.25000000   -0.25000000    0.00000000          2/4
   1:     0.25000000    0.25000000    0.00000000          2/4

Wave functions: Uniform real-space grid
  Kinetic energy operator: 8*3+1=25 point O(h^6) finite-difference Laplacian
  ScaLapack parameters: grid=1x1, blocksize=None
  Wavefunction extrapolation:
    Improved wavefunction reuse through dual PAW basis 

Occupation numbers: Fermi-Dirac:
  width: 0.0500  # eV
 

Eigensolver
   Davidson(niter=2) 

Densities:
  Coarse grid: 20*20*20 grid
  Fine grid: 40*40*40 grid
  Total Charge: 0.000000 

Density mixing:
  Method: separate
  Backend: pulay
  Linear mixing parameter: 0.05
  old densities: 5
  Damping of long wavelength oscillations: 50 

Hamiltonian:
  XC and Coulomb potentials evaluated on a 40*40*40 grid
  Using the BEEF-vdW Exchange-Correlation functional
  Interpolation: tri-quintic (5. degree polynomial)
  Poisson solver: FastPoissonSolver using
    Stencil: 8*3+1=25 point O(h^6) finite-difference Laplacian
    FFT axes: [0, 1, 2]
    FST axes: []
 

XC parameters: BEEF-vdW with 2 nearest neighbor stencil

Memory estimate:
  Process memory now: 83.39 MiB
  Calculator: 1.24 MiB
    Density: 0.82 MiB
      Arrays: 0.14 MiB
      Localized functions: 0.63 MiB
      Mixer: 0.05 MiB
    Hamiltonian: 0.14 MiB
      Arrays: 0.09 MiB
      XC: 0.00 MiB
      Poisson: 0.00 MiB
      vbar: 0.05 MiB
    Wavefunctions: 0.29 MiB
      Arrays psit_nG: 0.07 MiB
      Eigensolver: 0.14 MiB
      Projections: 0.00 MiB
      Projectors: 0.07 MiB

Total number of cores used: 24
Parallelization over k-points: 2
Domain decomposition: 3 x 2 x 2

Number of atoms: 1
Number of atomic orbitals: 7
Number of bands in calculation: 7
Number of valence electrons: 7
Bands to converge: occupied

... initialized

Initializing position-dependent things.

Density initialized from atomic densities
Creating initial wave functions:
  7 bands from LCAO basis set

                
                
                
       Na       
                
                
                
                

Positions:
   0 Na     0.000000    0.000000    0.000000    ( 0.0000,  0.0000,  0.0000)

Unit cell:
           periodic     x           y           z      points  spacing
  1. axis:    yes   -2.115000    2.115000    2.115000    20     0.1496
  2. axis:    yes    2.115000   -2.115000    2.115000    20     0.1496
  3. axis:    yes    2.115000    2.115000   -2.115000    20     0.1496

  Lengths:   3.663287   3.663287   3.663287
  Angles:  109.471221 109.471221 109.471221

Effective grid spacing dv^(1/3) = 0.1679

     iter     time        total  log10-change:
                         energy  eigst   dens
iter:   1 05:47:29   -22.203333
iter:   2 05:47:52   -22.209370  -0.73  -1.69
iter:   3 05:48:16   -22.213626  -1.24  -1.70
iter:   4 05:48:38   -22.214748  -1.85  -2.23
Writing to output.gpw (mode='')

iter:   5 05:48:59   -22.214720c -2.29  -3.09
iter:   6 05:49:20   -22.214549c -2.61  -2.45
iter:   7 05:49:44   -22.214569c -3.04  -2.73
iter:   8 05:50:08   -22.214626c -3.03  -3.49
iter:   9 05:50:31   -22.214564c -4.12  -3.23
Writing to output.gpw (mode='')

iter:  10 05:50:56   -22.214561c -4.35  -4.17c
iter:  11 05:51:19   -22.214561c -4.64  -4.56c
iter:  12 05:51:40   -22.214561c -5.15  -4.67c
iter:  13 05:52:03   -22.214561c -5.91  -4.96c
iter:  14 05:52:24   -22.214561c -7.21  -5.00c
Writing to output.gpw (mode='')

iter:  15 05:52:48   -22.214561c -7.62c -5.01c

Converged after 15 iterations.

Dipole moment: (-0.149001, -0.149001, -0.149001) |e|*Ang

Energy contributions relative to reference atoms: (reference = -4418.610498)

Kinetic:         +5.094932
Potential:       -5.226170
External:        +0.000000
XC:             -22.049041
Entropy (-ST):   -0.000000
Local:           -0.034283
--------------------------
Free energy:    -22.214561
Extrapolated:   -22.214561

Showing all kpts
 Kpt  Band  Eigenvalues  Occupancy
  0     1    -25.55800    2.00000
  0     2    -25.55293    2.00000
  0     3     -2.04892    2.00000
  0     4      6.05638    0.00000

  1     1    -25.56526    2.00000
  1     2    -25.55598    2.00000
  1     3      0.03349    0.00000
  1     4      3.77146    0.00000


Fermi level: -1.00859

No gap

Forces in eV/Ang:
  0 Na   -0.00000   -0.00000    0.00000

Timing:                              incl.     excl.
-----------------------------------------------------------
Forces:                              0.075     0.075   0.0% |
Hamiltonian:                        30.193     0.000   0.0% |
 Atomic:                             0.279     0.279   0.1% |
  XC Correction:                     0.000     0.000   0.0% |
 Calculate atomic Hamiltonians:      0.016     0.016   0.0% |
 Communicate:                        0.012     0.012   0.0% |
 Hartree integrate/restrict:         0.026     0.026   0.0% |
 Initialize Hamiltonian:             0.000     0.000   0.0% |
 Poisson:                            0.115     0.010   0.0% |
  Communicate from 1D:               0.010     0.010   0.0% |
  Communicate from 2D:               0.052     0.052   0.0% |
  Communicate to 1D:                 0.018     0.018   0.0% |
  Communicate to 2D:                 0.024     0.024   0.0% |
  FFT 1D:                            0.000     0.000   0.0% |
  FFT 2D:                            0.001     0.001   0.0% |
 XC 3D grid:                        29.744     0.341   0.1% |
  VdW-DF integral:                  29.403     0.006   0.0% |
   Convolution:                      0.020     0.020   0.0% |
   FFT:                              0.003     0.003   0.0% |
   gather:                          20.423    20.423   5.8% |-|
   hmm1:                             0.005     0.005   0.0% |
   hmm2:                             0.015     0.015   0.0% |
   iFFT:                             0.003     0.003   0.0% |
   potential:                        0.387     0.001   0.0% |
    collect:                         0.140     0.140   0.0% |
    p1:                              0.024     0.024   0.0% |
    p2:                              0.008     0.008   0.0% |
    sum:                             0.214     0.214   0.1% |
   splines:                          8.543     8.543   2.4% ||
 vbar:                               0.000     0.000   0.0% |
LCAO initialization:                 0.314     0.113   0.0% |
 LCAO eigensolver:                   0.093     0.000   0.0% |
  Calculate projections:             0.000     0.000   0.0% |
  DenseAtomicCorrection:             0.000     0.000   0.0% |
  Distribute overlap matrix:         0.036     0.036   0.0% |
  Orbital Layouts:                   0.033     0.033   0.0% |
  Potential matrix:                  0.023     0.023   0.0% |
  Sum over cells:                    0.000     0.000   0.0% |
 LCAO to grid:                       0.001     0.001   0.0% |
 Set positions (LCAO WFS):           0.106     0.054   0.0% |
  Basic WFS set positions:           0.005     0.005   0.0% |
  Basis functions set positions:     0.000     0.000   0.0% |
  P tci:                             0.009     0.009   0.0% |
  ST tci:                            0.020     0.020   0.0% |
  mktci:                             0.018     0.018   0.0% |
SCF-cycle:                         320.705     4.490   1.3% ||
 Davidson:                          40.391    25.400   7.2% |--|
  Apply hamiltonian:                 2.966     2.966   0.8% |
  Subspace diag:                     4.290     0.002   0.0% |
   calc_h_matrix:                    3.777     0.008   0.0% |
    Apply hamiltonian:               3.770     3.770   1.1% |
   diagonalize:                      0.505     0.505   0.1% |
   rotate_psi:                       0.006     0.006   0.0% |
  calc. matrices:                    7.301     1.014   0.3% |
   Apply hamiltonian:                6.287     6.287   1.8% ||
  diagonalize:                       0.009     0.009   0.0% |
  rotate_psi:                        0.424     0.424   0.1% |
 Density:                            4.727     0.000   0.0% |
  Atomic density matrices:           0.472     0.472   0.1% |
  Mix:                               2.284     2.284   0.6% |
  Multipole moments:                 0.112     0.112   0.0% |
  Pseudo density:                    1.859     0.031   0.0% |
   Symmetrize density:               1.828     1.828   0.5% |
 Hamiltonian:                      271.042     0.002   0.0% |
  Atomic:                            3.208     3.208   0.9% |
   XC Correction:                    0.000     0.000   0.0% |
  Calculate atomic Hamiltonians:     0.310     0.310   0.1% |
  Communicate:                       0.209     0.209   0.1% |
  Hartree integrate/restrict:        0.545     0.545   0.2% |
  Poisson:                           2.326     0.258   0.1% |
   Communicate from 1D:              0.666     0.666   0.2% |
   Communicate from 2D:              0.495     0.495   0.1% |
   Communicate to 1D:                0.347     0.347   0.1% |
   Communicate to 2D:                0.545     0.545   0.2% |
   FFT 1D:                           0.004     0.004   0.0% |
   FFT 2D:                           0.011     0.011   0.0% |
  XC 3D grid:                      264.441     6.622   1.9% ||
   VdW-DF integral:                257.819     0.069   0.0% |
    Convolution:                     0.480     0.480   0.1% |
    FFT:                             0.057     0.057   0.0% |
    gather:                        250.914   250.914  70.9% |---------------------------|
    hmm1:                            0.101     0.101   0.0% |
    hmm2:                            0.098     0.098   0.0% |
    iFFT:                            0.049     0.049   0.0% |
    potential:                       6.051     0.006   0.0% |
     collect:                        2.638     2.638   0.7% |
     p1:                             0.506     0.506   0.1% |
     p2:                             0.134     0.134   0.0% |
     sum:                            2.766     2.766   0.8% |
    splines:                         0.000     0.000   0.0% |
  vbar:                              0.001     0.001   0.0% |
 Orthonormalize:                     0.055     0.000   0.0% |
  calc_s_matrix:                     0.002     0.002   0.0% |
  inverse-cholesky:                  0.052     0.052   0.0% |
  projections:                       0.001     0.001   0.0% |
  rotate_psi_s:                      0.000     0.000   0.0% |
Set symmetry:                        0.057     0.057   0.0% |
Other:                               2.592     2.592   0.7% |
-----------------------------------------------------------
Total:                                       353.936 100.0%

Memory usage: 111.66 MiB
Date: Tue Jan 17 05:52:48 2023
