
  ___ ___ ___ _ _ _  
 |   |   |_  | | | | 
 | | | | | . | | | | 
 |__ |  _|___|_____|  22.8.0
 |___|_|             

User:   vazumah@c21.hercules
Date:   Thu Jan 19 02:44:48 2023
Arch:   x86_64
Pid:    14291
CWD:    /home/vazumah/Python_projects/LiNRR/autocad_start/slab_experiments/free_slabs/Cs/bcc111/substrate
Python: 3.10.8
gpaw:   /home/vazumah/.conda/envs/GPAW/lib/python3.10/site-packages/gpaw
_gpaw:  /home/vazumah/.conda/envs/GPAW/lib/python3.10/site-packages/
        _gpaw.cpython-310-x86_64-linux-gnu.so
ase:    /home/vazumah/.conda/envs/GPAW/lib/python3.10/site-packages/ase (version 3.22.1)
numpy:  /home/vazumah/.conda/envs/GPAW/lib/python3.10/site-packages/numpy (version 1.24.1)
scipy:  /home/vazumah/.conda/envs/GPAW/lib/python3.10/site-packages/scipy (version 1.10.0)
libxc:  5.2.3
units:  Angstrom and eV
cores: 24
OpenMP: True
OMP_NUM_THREADS: 1

Input parameters:
  eigensolver: {name: dav,
                niter: 3}
  h: 0.16
  kpts: {size: [2, 2, 1]}
  maxiter: 999
  mixer: {backend: pulay,
          beta: 0.02,
          method: separate,
          nmaxold: 5,
          weight: 100}
  occupations: {name: fermi-dirac,
                width: 0.05}
  poissonsolver: {dipolelayer: xy}
  xc: BEEF-vdW

System changes: positions, numbers, cell, pbc, initial_charges, initial_magmoms 

Initialize ...

species:
  Cs:
    name: Caesium
    id: fa822afd343f47335d508b9ee4f394c3
    Z: 55.0
    valence: 9
    core: 46
    charge: 0.0
    file: /home/vazumah/.conda/envs/GPAW/share/gpaw/Cs.PBE.gz
    compensation charges: {type: gauss,
                           rc: 0.33,
                           lmax: 2}
    cutoffs: {filter: 2.06,
              core: 2.51}
    valence states:
      #              energy  rcut
      - 5s(2.00)   -26.706   1.164
      - 6s(1.00)    -2.085   1.164
      - 5p(6.00)   -13.523   1.058
      -  p          13.688   1.058
      -  d           0.000   1.058
  
    # Using partial waves for Cs as LCAO basis

Reference energy: -7624802.753492  # eV

Spin-paired calculation

Convergence criteria:
 Maximum [total energy] change in last 3 cyles: 0.0005 eV / electron
 Maximum integral of absolute [dens]ity change: 0.0001 electrons / valence electron
 Maximum integral of absolute [eigenst]ate change: 4e-08 eV^2 / valence electron
 Maximum number of scf [iter]ations: 999
 (Square brackets indicate name in SCF output, whereas a 'c' in
 the SCF output indicates the quantity has converged.)

Symmetries present (total): 12

  ( 1  0  0)  ( 1  0  0)  ( 1 -1  0)  ( 1 -1  0)  ( 0  1  0)  ( 0  1  0)
  ( 1 -1  0)  ( 0  1  0)  ( 1  0  0)  ( 0 -1  0)  ( 1  0  0)  (-1  1  0)
  ( 0  0 -1)  ( 0  0  1)  ( 0  0 -1)  ( 0  0  1)  ( 0  0  1)  ( 0  0 -1)

  ( 0 -1  0)  ( 0 -1  0)  (-1  1  0)  (-1  1  0)  (-1  0  0)  (-1  0  0)
  ( 1 -1  0)  (-1  0  0)  ( 0  1  0)  (-1  0  0)  ( 0 -1  0)  (-1  1  0)
  ( 0  0  1)  ( 0  0 -1)  ( 0  0 -1)  ( 0  0  1)  ( 0  0 -1)  ( 0  0  1)
Note: your k-points are not as symmetric as your crystal!

4 k-points: 2 x 2 x 1 Monkhorst-Pack grid
2 k-points in the irreducible part of the Brillouin zone
       k-points in crystal coordinates                weights
   0:     0.25000000   -0.25000000    0.00000000          2/4
   1:     0.25000000    0.25000000    0.00000000          2/4

Wave functions: Uniform real-space grid
  Kinetic energy operator: 8*3+1=25 point O(h^6) finite-difference Laplacian
  ScaLapack parameters: grid=1x1, blocksize=None
  Wavefunction extrapolation:
    Improved wavefunction reuse through dual PAW basis 

Occupation numbers: Fermi-Dirac:
  width: 0.0500  # eV
 

Eigensolver
   Davidson(niter=3) 

Densities:
  Coarse grid: 140*140*156 grid
  Fine grid: 280*280*312 grid
  Total Charge: 0.000000 

Density mixing:
  Method: separate
  Backend: pulay
  Linear mixing parameter: 0.02
  old densities: 5
  Damping of long wavelength oscillations: 100 

Hamiltonian:
  XC and Coulomb potentials evaluated on a 280*280*312 grid
  Using the BEEF-vdW Exchange-Correlation functional
  Interpolation: tri-quintic (5. degree polynomial)
  Poisson solver: FastPoissonSolver using
    Stencil: 8*3+1=25 point O(h^6) finite-difference Laplacian
    FFT axes: [0, 1]
    FST axes: [2]

Dipole correction along z-axis 

XC parameters: BEEF-vdW with 2 nearest neighbor stencil

Memory estimate:
  Process memory now: 268.88 MiB
  Calculator: 1521.20 MiB
    Density: 87.91 MiB
      Arrays: 50.02 MiB
      Localized functions: 18.82 MiB
      Mixer: 19.07 MiB
    Hamiltonian: 34.13 MiB
      Arrays: 32.71 MiB
      XC: 0.00 MiB
      Poisson: 0.00 MiB
      vbar: 1.42 MiB
    Wavefunctions: 1399.16 MiB
      Arrays psit_nG: 686.37 MiB
      Eigensolver: 710.39 MiB
      Projections: 0.11 MiB
      Projectors: 2.30 MiB

Total number of cores used: 24
Parallelization over k-points: 2
Domain decomposition: 2 x 2 x 3

Number of atoms: 36
Number of atomic orbitals: 180
Number of bands in calculation: 180
Number of valence electrons: 324
Bands to converge: occupied

... initialized

Initializing position-dependent things.

Density initialized from atomic densities
Creating initial wave functions:
  180 bands from LCAO basis set

                                                                                                      
                                                                                                      
                                                                                                      
                                                                                                      
                                                                                                      
                                                                                                      
                                         Cs                  Cs                   Cs                  
                                     Cs                   Cs                   Cs                     
                                                                                                      
                                                 Cs                   Cs                   Cs         
                         Cs                   Cs                   Cs                                 
                      Cs                   Cs                   Cs                                    
                                                                                                      
                                     Cs                   Cs                   Cs                     
                                  Cs                   Cs                   Cs                        
          Cs                   Cs                   Cs                                                
       Cs                   Cs                   Cs                                                   
                                                                                                      
                      Cs                   Cs                   Cs                                    
                   Cs                   Cs                   Cs                                       
                                                                                                      
                                                                                                      
       Cs                   Cs                   Cs                                                   
                                                                                                      
                                                                                                      
                                                                                                      
                                                                                                      

Positions:
   0 Cs     0.000000    0.000000   10.000000    ( 0.0000,  0.0000,  0.0000)
   1 Cs     8.555992    0.000000   10.000000    ( 0.0000,  0.0000,  0.0000)
   2 Cs    17.111984    0.000000   10.000000    ( 0.0000,  0.0000,  0.0000)
   3 Cs     4.277996    7.409706   10.000000    ( 0.0000,  0.0000,  0.0000)
   4 Cs    12.833988    7.409706   10.000000    ( 0.0000,  0.0000,  0.0000)
   5 Cs    21.389980    7.409706   10.000000    ( 0.0000,  0.0000,  0.0000)
   6 Cs     8.555992   14.819413   10.000000    ( 0.0000,  0.0000,  0.0000)
   7 Cs    17.111984   14.819413   10.000000    ( 0.0000,  0.0000,  0.0000)
   8 Cs    25.667976   14.819413   10.000000    ( 0.0000,  0.0000,  0.0000)
   9 Cs     4.277996    2.469902   11.746485    ( 0.0000,  0.0000,  0.0000)
  10 Cs    12.833988    2.469902   11.746485    ( 0.0000,  0.0000,  0.0000)
  11 Cs    21.389980    2.469902   11.746485    ( 0.0000,  0.0000,  0.0000)
  12 Cs     8.555992    9.879609   11.746485    ( 0.0000,  0.0000,  0.0000)
  13 Cs    17.111984    9.879609   11.746485    ( 0.0000,  0.0000,  0.0000)
  14 Cs    25.667976    9.879609   11.746485    ( 0.0000,  0.0000,  0.0000)
  15 Cs    12.833988   17.289315   11.746485    ( 0.0000,  0.0000,  0.0000)
  16 Cs    21.389980   17.289315   11.746485    ( 0.0000,  0.0000,  0.0000)
  17 Cs    29.945972   17.289315   11.746485    ( 0.0000,  0.0000,  0.0000)
  18 Cs     0.000000    4.939804   13.492969    ( 0.0000,  0.0000,  0.0000)
  19 Cs     8.555992    4.939804   13.492969    ( 0.0000,  0.0000,  0.0000)
  20 Cs    17.111984    4.939804   13.492969    ( 0.0000,  0.0000,  0.0000)
  21 Cs     4.277996   12.349511   13.492969    ( 0.0000,  0.0000,  0.0000)
  22 Cs    12.833988   12.349511   13.492969    ( 0.0000,  0.0000,  0.0000)
  23 Cs    21.389980   12.349511   13.492969    ( 0.0000,  0.0000,  0.0000)
  24 Cs     8.555992   19.759217   13.492969    ( 0.0000,  0.0000,  0.0000)
  25 Cs    17.111984   19.759217   13.492969    ( 0.0000,  0.0000,  0.0000)
  26 Cs    25.667976   19.759217   13.492969    ( 0.0000,  0.0000,  0.0000)
  27 Cs     0.000000    0.000000   15.239454    ( 0.0000,  0.0000,  0.0000)
  28 Cs     8.555992    0.000000   15.239454    ( 0.0000,  0.0000,  0.0000)
  29 Cs    17.111984    0.000000   15.239454    ( 0.0000,  0.0000,  0.0000)
  30 Cs     4.277996    7.409706   15.239454    ( 0.0000,  0.0000,  0.0000)
  31 Cs    12.833988    7.409706   15.239454    ( 0.0000,  0.0000,  0.0000)
  32 Cs    21.389980    7.409706   15.239454    ( 0.0000,  0.0000,  0.0000)
  33 Cs     8.555992   14.819413   15.239454    ( 0.0000,  0.0000,  0.0000)
  34 Cs    17.111984   14.819413   15.239454    ( 0.0000,  0.0000,  0.0000)
  35 Cs    25.667976   14.819413   15.239454    ( 0.0000,  0.0000,  0.0000)

Unit cell:
           periodic     x           y           z      points  spacing
  1. axis:    yes   25.667976    0.000000    0.000000   140     0.1588
  2. axis:    yes   12.833988   22.229119    0.000000   140     0.1588
  3. axis:    no     0.000000    0.000000   25.239454   156     0.1618

  Lengths:  25.667976  25.667976  25.239454
  Angles:   90.000000  90.000000  60.000000

Effective grid spacing dv^(1/3) = 0.1676

     iter     time        total  log10-change:
                         energy  eigst   dens
iter:   1 03:09:23 -6606.006750
