
  ___ ___ ___ _ _ _  
 |   |   |_  | | | | 
 | | | | | . | | | | 
 |__ |  _|___|_____|  22.8.0
 |___|_|             

User:   vazumah@c22.hercules
Date:   Sun Feb 12 10:29:32 2023
Arch:   x86_64
Pid:    10494
CWD:    /home/vazumah/Python_projects/LiNRR/autocad_start/slab_experiments/free_slabs/Sr/fcc110/substrate
Python: 3.10.8
gpaw:   /home/vazumah/.conda/envs/GPAW/lib/python3.10/site-packages/gpaw
_gpaw:  /home/vazumah/.conda/envs/GPAW/lib/python3.10/site-packages/
        _gpaw.cpython-310-x86_64-linux-gnu.so
ase:    /home/vazumah/.conda/envs/GPAW/lib/python3.10/site-packages/ase (version 3.22.1)
numpy:  /home/vazumah/.conda/envs/GPAW/lib/python3.10/site-packages/numpy (version 1.24.1)
scipy:  /home/vazumah/.conda/envs/GPAW/lib/python3.10/site-packages/scipy (version 1.10.0)
libxc:  5.2.3
units:  Angstrom and eV
cores: 24
OpenMP: True
OMP_NUM_THREADS: 1

Reading from output.gpw
Reading input parameters:
  h: 0.16
  kpts: {size: [2, 4, 1]}
  maxiter: 999
  occupations: {name: fermi-dirac,
                width: 0.05}
  poissonsolver: {dipolelayer: xy}
  xc: BEEF-vdW

Initialize ...

species:
  Sr:
    name: Strontium
    id: 1681cef0785a8ddd65899c0215808a0d
    Z: 38.0
    valence: 10
    core: 28
    charge: 0.0
    file: /home/vazumah/.conda/envs/GPAW/share/gpaw/Sr.PBE.gz
    compensation charges: {type: gauss,
                           rc: 0.40,
                           lmax: 2}
    cutoffs: {filter: 2.39,
              core: 1.85}
    valence states:
      #              energy  rcut
      - 4s(2.00)   -40.883   1.291
      - 5s(2.00)    -3.525   1.291
      - 4p(6.00)   -22.826   1.291
      -  p           4.386   1.291
      -  d           0.000   1.254
  
    # Using partial waves for Sr as LCAO basis

Reference energy: -3113883.720283  # eV

Spin-paired calculation

Convergence criteria:
 Maximum [total energy] change in last 3 cyles: 0.0005 eV / electron
 Maximum integral of absolute [dens]ity change: 0.0001 electrons / valence electron
 Maximum integral of absolute [eigenst]ate change: 4e-08 eV^2 / valence electron
 Maximum number of scf [iter]ations: 999
 (Square brackets indicate name in SCF output, whereas a 'c' in
 the SCF output indicates the quantity has converged.)

Symmetries present (total): 4

  ( 1  0  0)  ( 1  0  0)  (-1  0  0)  (-1  0  0)
  ( 0  1  0)  ( 0 -1  0)  ( 0  1  0)  ( 0 -1  0)
  ( 0  0  1)  ( 0  0  1)  ( 0  0  1)  ( 0  0  1)

8 k-points: 2 x 4 x 1 Monkhorst-Pack grid
2 k-points in the irreducible part of the Brillouin zone
       k-points in crystal coordinates                weights
   0:     0.25000000    0.12500000    0.00000000          4/8
   1:     0.25000000    0.37500000    0.00000000          4/8

Wave functions: Uniform real-space grid
  Kinetic energy operator: 6*3+1=19 point O(h^6) finite-difference Laplacian
  ScaLapack parameters: grid=1x1, blocksize=None
  Wavefunction extrapolation:
    Improved wavefunction reuse through dual PAW basis 

Occupation numbers: Fermi-Dirac:
  width: 0.0500  # eV
 

Eigensolver
   Davidson(niter=2) 

Densities:
  Coarse grid: 116*80*164 grid
  Fine grid: 232*160*328 grid
  Total Charge: 0.000000 

Density mixing:
  Method: separate
  Backend: pulay
  Linear mixing parameter: 0.05
  old densities: 5
  Damping of long wavelength oscillations: 50 

Hamiltonian:
  XC and Coulomb potentials evaluated on a 232*160*328 grid
  Using the BEEF-vdW Exchange-Correlation functional
  Interpolation: tri-quintic (5. degree polynomial)
  Poisson solver: FastPoissonSolver using
    Stencil: 6*3+1=19 point O(h^6) finite-difference Laplacian
    FFT axes: [0, 1]
    FST axes: [2]

Dipole correction along z-axis 

XC parameters: BEEF-vdW with 2 nearest neighbor stencil

Memory estimate:
  Process memory now: 179.29 MiB
  Calculator: 789.77 MiB
    Density: 63.85 MiB
      Arrays: 25.06 MiB
      Localized functions: 29.23 MiB
      Mixer: 9.56 MiB
    Hamiltonian: 18.95 MiB
      Arrays: 16.39 MiB
      XC: 0.00 MiB
      Poisson: 0.00 MiB
      vbar: 2.56 MiB
    Wavefunctions: 706.96 MiB
      Arrays psit_nG: 344.09 MiB
      Eigensolver: 358.60 MiB
      Projections: 0.11 MiB
      Projectors: 4.17 MiB

Total number of cores used: 24
Parallelization over k-points: 2
Domain decomposition: 2 x 2 x 3

Number of atoms: 36
Number of atomic orbitals: 180
Number of bands in calculation: 180
Number of valence electrons: 360
Bands to converge: occupied

... initialized

Initializing position-dependent things.

Creating initial wave functions:
  180 bands from LCAO basis set

         .--------------------------------------------.  
        /|                                            |  
       / |                                            |  
      /  |                                            |  
     /   |                                            |  
    /    |                                            |  
   /     |                                            |  
  /      |                                            |  
 *       |                                            |  
 |       |                                            |  
 |       |                                            |  
 |       |                                            |  
 |       |                                            |  
 |       |                                            |  
 |       |                                            |  
 |    Sr |           Sr             Sr                |  
 |       |     Sr             Sr             Sr       |  
 |  Sr   |         Sr             Sr                  |  
 |       |                                            |  
 |       |   Sr             Sr            Sr          |  
 Sr   Sr |      Sr   Sr        Sr   Sr                |  
 |       |Sr   Sr        Sr   Sr        Sr   Sr       |  
 |       |                                            |  
 |  Sr   |         Sr             Sr                  |  
 |       |   Sr             Sr            Sr          |  
 Sr      |      Sr             Sr                     |  
 |       |                                            |  
 |       |Sr             Sr             Sr            |  
 |       |                                            |  
 |       |                                            |  
 |       |                                            |  
 |       |                                            |  
 |       .--------------------------------------------.  
 |      /                                            /   
 |     /                                            /    
 |    /                                            /     
 |   /                                            /      
 |  /                                            /       
 | /                                            /        
 |/                                            /         
 *--------------------------------------------*          

Positions:
   0 Sr     3.040000    2.149605   10.000000    ( 0.0000,  0.0000,  0.0000)
   1 Sr     9.120000    2.149605   10.000000    ( 0.0000,  0.0000,  0.0000)
   2 Sr    15.200000    2.149605   10.000000    ( 0.0000,  0.0000,  0.0000)
   3 Sr     3.040000    6.448814   10.000000    ( 0.0000,  0.0000,  0.0000)
   4 Sr     9.120000    6.448814   10.000000    ( 0.0000,  0.0000,  0.0000)
   5 Sr    15.200000    6.448814   10.000000    ( 0.0000,  0.0000,  0.0000)
   6 Sr     3.040000   10.748023   10.000000    ( 0.0000,  0.0000,  0.0000)
   7 Sr     9.120000   10.748023   10.000000    ( 0.0000,  0.0000,  0.0000)
   8 Sr    15.200000   10.748023   10.000000    ( 0.0000,  0.0000,  0.0000)
   9 Sr     0.000000    0.000000   12.149605    ( 0.0000,  0.0000,  0.0000)
  10 Sr     6.080000    0.000000   12.149605    ( 0.0000,  0.0000,  0.0000)
  11 Sr    12.160000    0.000000   12.149605    ( 0.0000,  0.0000,  0.0000)
  12 Sr     0.000000    4.299209   12.149605    ( 0.0000,  0.0000,  0.0000)
  13 Sr     6.080000    4.299209   12.149605    ( 0.0000,  0.0000,  0.0000)
  14 Sr    12.160000    4.299209   12.149605    ( 0.0000,  0.0000,  0.0000)
  15 Sr     0.000000    8.598418   12.149605    ( 0.0000,  0.0000,  0.0000)
  16 Sr     6.080000    8.598418   12.149605    ( 0.0000,  0.0000,  0.0000)
  17 Sr    12.160000    8.598418   12.149605    ( 0.0000,  0.0000,  0.0000)
  18 Sr     3.040000    2.149605   14.299209    ( 0.0000,  0.0000,  0.0000)
  19 Sr     9.120000    2.149605   14.299209    ( 0.0000,  0.0000,  0.0000)
  20 Sr    15.200000    2.149605   14.299209    ( 0.0000,  0.0000,  0.0000)
  21 Sr     3.040000    6.448814   14.299209    ( 0.0000,  0.0000,  0.0000)
  22 Sr     9.120000    6.448814   14.299209    ( 0.0000,  0.0000,  0.0000)
  23 Sr    15.200000    6.448814   14.299209    ( 0.0000,  0.0000,  0.0000)
  24 Sr     3.040000   10.748023   14.299209    ( 0.0000,  0.0000,  0.0000)
  25 Sr     9.120000   10.748023   14.299209    ( 0.0000,  0.0000,  0.0000)
  26 Sr    15.200000   10.748023   14.299209    ( 0.0000,  0.0000,  0.0000)
  27 Sr     0.000000    0.000000   16.448814    ( 0.0000,  0.0000,  0.0000)
  28 Sr     6.080000    0.000000   16.448814    ( 0.0000,  0.0000,  0.0000)
  29 Sr    12.160000    0.000000   16.448814    ( 0.0000,  0.0000,  0.0000)
  30 Sr     0.000000    4.299209   16.448814    ( 0.0000,  0.0000,  0.0000)
  31 Sr     6.080000    4.299209   16.448814    ( 0.0000,  0.0000,  0.0000)
  32 Sr    12.160000    4.299209   16.448814    ( 0.0000,  0.0000,  0.0000)
  33 Sr     0.000000    8.598418   16.448814    ( 0.0000,  0.0000,  0.0000)
  34 Sr     6.080000    8.598418   16.448814    ( 0.0000,  0.0000,  0.0000)
  35 Sr    12.160000    8.598418   16.448814    ( 0.0000,  0.0000,  0.0000)

Unit cell:
           periodic     x           y           z      points  spacing
  1. axis:    yes   18.240000    0.000000    0.000000   116     0.1572
  2. axis:    yes    0.000000   12.897628    0.000000    80     0.1612
  3. axis:    no     0.000000    0.000000   26.448814   164     0.1613

  Lengths:  18.240000  12.897628  26.448814
  Angles:   90.000000  90.000000  90.000000

Effective grid spacing dv^(1/3) = 0.1599

     iter     time        total  log10-change:
                         energy  eigst   dens
iter:   1 10:41:01 -3836.049763  +1.31
iter:   2 10:51:08 -3843.933443  +0.92  -1.44
iter:   3 11:01:11 -3849.870932  +0.94  -1.53
iter:   4 11:11:20 -3855.356151  +0.92  -1.75
Writing to output.gpw (mode='')

iter:   5 11:21:31 -3857.936653  +0.50  -1.92
iter:   6 11:31:30 -3859.354410  +0.20  -1.90
iter:   7 11:41:37 -3860.367206  +0.01  -1.93
iter:   8 11:52:03 -3861.055329  +0.06  -1.97
iter:   9 12:02:08 -3862.317279  +0.21  -2.23
Writing to output.gpw (mode='')

iter:  10 12:12:23 -3863.082980  +0.02  -2.04
iter:  11 12:22:39 -3864.012406  +0.00  -1.90
iter:  12 12:32:53 -3864.307598  -0.33  -1.75
iter:  13 12:42:54 -3864.045251  -0.71  -1.70
iter:  14 12:52:59 -3863.601979  -0.96  -1.70
Writing to output.gpw (mode='')

iter:  15 13:03:14 -3863.553174  -1.04  -1.73
iter:  16 13:13:19 -3863.169941  -0.85  -1.74
iter:  17 13:23:31 -3863.064970  +0.35  -1.80
iter:  18 13:33:33 -3863.215621c -0.55  -2.21
iter:  19 13:44:10 -3863.307415  -0.90  -2.53
Writing to output.gpw (mode='')

iter:  20 13:54:18 -3863.412726  -0.84  -2.61
iter:  21 14:04:39 -3863.454936c -1.32  -2.60
iter:  22 14:14:52 -3863.498005c -1.41  -2.58
iter:  23 14:25:07 -3863.539792c -1.40  -2.53
iter:  24 14:35:19 -3863.542271c -1.47  -2.49
Writing to output.gpw (mode='')

iter:  25 14:45:42 -3863.570775c -1.36  -2.62
iter:  26 14:55:56 -3863.597578c -1.60  -2.65
iter:  27 15:06:12 -3863.628932c -1.50  -2.68
iter:  28 15:16:15 -3863.648627c -1.51  -2.65
iter:  29 15:26:22 -3863.676868c -1.37  -2.73
Writing to output.gpw (mode='')

iter:  30 15:36:24 -3863.697589c -1.65  -2.77
iter:  31 15:46:43 -3863.716771c -1.70  -2.75
iter:  32 15:56:52 -3863.736862c -1.66  -2.73
iter:  33 16:07:21 -3863.753484c -1.78  -2.70
iter:  34 16:17:45 -3863.772007c -1.60  -2.67
Writing to output.gpw (mode='')

iter:  35 16:28:01 -3863.789238c -1.87  -2.64
iter:  36 16:38:19 -3863.804172c -1.84  -2.62
iter:  37 16:48:40 -3863.810229c -1.94  -2.57
iter:  38 16:59:14 -3863.820112c -1.96  -2.59
iter:  39 17:09:41 -3863.830604c -1.80  -2.58
Writing to output.gpw (mode='')

iter:  40 17:20:00 -3863.845215c -1.67  -2.59
iter:  41 17:30:13 -3863.857228c -1.80  -2.61
iter:  42 17:40:26 -3863.866588c -2.06  -2.61
iter:  43 17:50:54 -3863.873523c -1.73  -2.55
iter:  44 18:00:54 -3863.892576c -1.63  -2.61
Writing to output.gpw (mode='')

iter:  45 18:11:00 -3863.907873c -1.26  -2.56
iter:  46 18:21:11 -3863.910117c -2.05  -2.77
iter:  47 18:31:24 -3863.986939c -1.00  -2.77
iter:  48 18:41:27 -3863.931583c -2.08  -2.49
iter:  49 18:51:34 -3863.974908c -1.78  -2.58
Writing to output.gpw (mode='')

iter:  50 19:01:50 -3864.073144c -0.96  -2.53
iter:  51 19:12:09 -3863.951411c -1.72  -2.35
iter:  52 19:22:13 -3864.090099c -1.29  -2.43
iter:  53 19:32:11 -3864.158292  -1.21  -2.34
iter:  54 19:42:26 -3864.103094c -1.97  -2.26
Writing to output.gpw (mode='')

iter:  55 19:52:50 -3863.964973  -1.57  -2.26
iter:  56 20:02:49 -3864.050785c -2.14  -2.32
iter:  57 20:12:33 -3864.183133  -1.17  -2.31
iter:  58 20:22:22 -3864.010235c -0.43  -2.22
iter:  59 20:32:39 -3864.087012c -0.98  -2.56
Writing to output.gpw (mode='')

iter:  60 20:42:52 -3864.060701c -1.63  -2.57
iter:  61 20:53:06 -3864.061136c -1.94  -2.67
iter:  62 21:03:16 -3864.080429c -1.91  -2.67
iter:  63 21:13:49 -3864.097721c -0.80  -2.63
iter:  64 21:23:44 -3864.090102c -1.91  -2.64
Writing to output.gpw (mode='')

iter:  65 21:33:42 -3864.118130c -1.05  -2.65
iter:  66 21:43:51 -3864.162628c -1.14  -2.64
iter:  67 21:53:54 -3864.107343c -1.27  -2.56
iter:  68 22:04:02 -3864.180835c -1.19  -2.61
iter:  69 22:14:07 -3864.471096  -0.33  -2.55
Writing to output.gpw (mode='')

iter:  70 22:24:14 -3864.443115  -1.10  -2.24
iter:  71 22:34:16 -3864.322096c -1.73  -2.19
iter:  72 22:44:32 -3864.209423  -1.58  -2.18
iter:  73 22:54:44 -3864.144222c -1.34  -2.23
iter:  74 23:04:46 -3864.188923c -1.46  -2.29
Writing to output.gpw (mode='')

iter:  75 23:14:51 -3864.270694c -2.03  -2.32
iter:  76 23:24:56 -3864.402028  -0.13  -2.31
iter:  77 23:35:17 -3864.285307c -1.32  -2.28
iter:  78 23:45:20 -3864.196951  -1.30  -2.29
iter:  79 23:55:32 -3864.249217c -0.39  -2.37
Writing to output.gpw (mode='')

iter:  80 00:05:33 -3864.306359c -0.99  -2.73
iter:  81 00:10:08 -3864.348880c -1.19  -2.62
iter:  82 00:14:11 -3864.395224c -1.12  -2.52
iter:  83 00:18:16 -3864.339251c -1.97  -2.41
iter:  84 00:22:20 -3864.437580c -1.25  -2.40
Writing to output.gpw (mode='')

iter:  85 00:26:24 -3864.350400c -2.11  -2.31
iter:  86 00:30:28 -3864.461760c -1.28  -2.32
iter:  87 00:34:33 -3864.371772c -2.09  -2.24
iter:  88 00:38:37 -3864.328082c -1.84  -2.25
iter:  89 00:42:40 -3864.715262  -0.61  -2.27
Writing to output.gpw (mode='')

iter:  90 00:46:47 -3864.715087  -1.51  -2.04
iter:  91 00:50:51 -3865.122334  -0.61  -2.02
iter:  92 00:54:54 -3864.132807  -1.00  -1.92
iter:  93 00:58:59 -3864.587032  -1.92  -2.04
iter:  94 01:03:04 -3864.666133  -1.70  -2.01
Writing to output.gpw (mode='')

iter:  95 01:07:09 -3864.154226  -0.40  -1.98
iter:  96 01:11:14 -3864.368936  +0.08  -2.29
iter:  97 01:15:18 -3864.556818  -0.47  -2.68
iter:  98 01:19:21 -3864.452327  -1.44  -2.43
iter:  99 01:23:26 -3864.534674c -1.34  -2.40
Writing to output.gpw (mode='')

iter: 100 01:27:31 -3864.449966c -1.93  -2.33
iter: 101 01:31:35 -3864.264951  -0.86  -2.32
iter: 102 01:35:39 -3864.359489  -1.88  -2.68
iter: 103 01:39:42 -3864.347529c -2.42  -2.59
iter: 104 01:43:45 -3864.519968c -0.28  -2.60
Writing to output.gpw (mode='')

iter: 105 01:47:51 -3864.514578c -1.40  -2.35
iter: 106 01:51:55 -3864.477976c -1.88  -2.30
iter: 107 01:55:59 -3864.272834  -0.66  -2.29
iter: 108 02:00:03 -3864.321232  -1.04  -2.77
iter: 109 02:04:06 -3864.349347c -1.36  -2.93
Writing to output.gpw (mode='')

iter: 110 02:08:12 -3864.346951c -2.40  -2.94
iter: 111 02:12:16 -3864.349344c -2.73  -3.01
iter: 112 02:16:19 -3864.368739c -1.46  -3.03
iter: 113 02:20:23 -3864.358094c -2.51  -2.88
iter: 114 02:24:28 -3864.560948  -0.51  -2.91
Writing to output.gpw (mode='')

iter: 115 02:28:33 -3864.504721  -1.60  -2.28
iter: 116 02:32:37 -3864.518842c -1.86  -2.26
iter: 117 02:36:41 -3864.516535c -1.93  -2.24
iter: 118 02:40:44 -3864.333625  -1.58  -2.22
iter: 119 02:44:48 -3864.522773  -0.10  -2.33
Writing to output.gpw (mode='')

iter: 120 02:48:53 -3864.322768  -1.36  -2.43
iter: 121 02:52:56 -3864.358885  -0.67  -2.72
iter: 122 02:56:59 -3864.412572c -0.94  -3.23
iter: 123 03:01:04 -3864.428182c -1.35  -2.83
iter: 124 03:05:07 -3864.437024c -1.60  -2.67
Writing to output.gpw (mode='')

iter: 125 03:09:13 -3864.437573c -1.97  -2.55
iter: 126 03:13:17 -3864.498102c -1.44  -2.50
iter: 127 03:17:21 -3864.543542c -1.34  -2.38
iter: 128 03:21:26 -3864.507565c -1.92  -2.31
iter: 129 03:25:30 -3864.451906c -2.57  -2.28
Writing to output.gpw (mode='')

iter: 130 03:29:35 -3864.483072c -2.42  -2.29
iter: 131 03:33:39 -3864.524458c -1.81  -2.26
iter: 132 03:37:43 -3864.718526  -0.91  -2.22
iter: 133 03:41:47 -3864.336161  -1.56  -2.08
iter: 134 03:45:51 -3864.441523  -2.69  -2.18
Writing to output.gpw (mode='')

iter: 135 03:49:58 -3864.433700c -2.92  -2.17
iter: 136 03:54:01 -3864.455893c -2.99  -2.17
iter: 137 03:58:05 -3864.820686  -0.11  -2.17
iter: 138 04:02:10 -3864.355017  -1.19  -2.04
iter: 139 04:06:14 -3864.136594  -0.61  -2.11
Writing to output.gpw (mode='')

iter: 140 04:10:20 -3864.195286  -0.91  -2.28
iter: 141 04:14:25 -3864.253709c -1.18  -2.38
iter: 142 04:18:29 -3864.279054c -1.18  -2.47
iter: 143 04:22:33 -3864.318051c -0.82  -2.61
iter: 144 04:26:37 -3864.372447c -0.92  -2.94
Writing to output.gpw (mode='')

iter: 145 04:30:43 -3864.410955c -1.11  -3.01
iter: 146 04:34:47 -3864.400546c -1.88  -2.81
iter: 147 04:38:51 -3864.420202c -1.79  -2.73
iter: 148 04:42:54 -3864.570942c -0.76  -2.64
iter: 149 04:46:58 -3864.521206c -1.52  -2.34
Writing to output.gpw (mode='')

iter: 150 04:51:03 -3864.572294c -1.39  -2.31
iter: 151 04:55:07 -3864.484270c -2.27  -2.25
iter: 152 04:59:11 -3864.429115c -2.47  -2.26
iter: 153 05:03:15 -3864.307061c -0.86  -2.27
iter: 154 05:07:18 -3864.356896c -2.24  -2.60
Writing to output.gpw (mode='')

iter: 155 05:11:24 -3864.364607c -2.55  -2.60
iter: 156 05:15:26 -3864.360321c -0.92  -2.62
iter: 157 05:19:30 -3864.376000c -1.49  -3.11
iter: 158 05:23:33 -3864.377972c -2.08  -3.12
iter: 159 05:27:37 -3864.371491c -2.52  -3.11
Writing to output.gpw (mode='')

iter: 160 05:31:41 -3864.375470c -1.89  -3.33
iter: 161 05:35:45 -3864.377940c -2.32  -3.35
iter: 162 05:39:48 -3864.374357c -3.35  -3.23
iter: 163 05:43:50 -3864.405542c -1.35  -3.28
iter: 164 05:47:53 -3864.387255c -2.93  -2.72
Writing to output.gpw (mode='')

iter: 165 05:51:59 -3864.392466c -2.89  -2.73
iter: 166 05:56:02 -3864.380845c -3.28  -2.71
iter: 167 06:00:05 -3864.369808c -2.00  -2.74
iter: 168 06:04:09 -3864.382637c -1.15  -2.91
iter: 169 06:10:07 -3864.375512c -2.88  -3.12
Writing to output.gpw (mode='')

iter: 170 06:20:17 -3864.397291c -1.28  -3.26
iter: 171 06:30:15 -3864.391457c -2.55  -2.85
iter: 172 06:40:15 -3864.390581c -2.90  -2.83
iter: 173 06:50:35 -3864.385431c -3.51  -2.81
iter: 174 07:01:06 -3864.381136c -3.30  -2.81
Writing to output.gpw (mode='')

iter: 175 07:11:17 -3864.378394c -2.81  -2.83
iter: 176 07:21:21 -3864.374987c -2.40  -2.86
iter: 177 07:31:15 -3864.375789c -2.50  -2.94
iter: 178 07:41:07 -3864.376096c -2.07  -3.01
iter: 179 07:51:07 -3864.382226c -1.55  -3.10
Writing to output.gpw (mode='')

iter: 180 08:01:17 -3864.382844c -2.48  -3.26
iter: 181 08:11:35 -3864.380940c -3.08  -3.18
iter: 182 08:21:51 -3864.381262c -3.42  -3.17
iter: 183 08:32:07 -3864.379163c -3.13  -3.15
iter: 184 08:42:07 -3864.378963c -3.29  -3.22
Writing to output.gpw (mode='')

iter: 185 08:52:12 -3864.379175c -2.56  -3.26
iter: 186 09:02:26 -3864.381790c -2.00  -3.35
iter: 187 09:12:45 -3864.380193c -3.48  -3.39
iter: 188 09:22:50 -3864.380192c -3.49  -3.51
iter: 189 09:32:49 -3864.380302c -3.14  -3.55
Writing to output.gpw (mode='')

iter: 190 09:42:56 -3864.381296c -2.57  -3.61
iter: 191 09:52:42 -3864.381080c -3.41  -3.58
iter: 192 10:02:41 -3864.381247c -3.57  -3.62
iter: 193 10:13:05 -3864.381474c -3.31  -3.62
iter: 194 10:23:02 -3864.381943c -3.00  -3.61
Writing to output.gpw (mode='')

iter: 195 10:32:57 -3864.382201c -3.41  -3.58
iter: 196 10:43:05 -3864.382001c -3.43  -3.54
iter: 197 10:53:30 -3864.382685c -3.11  -3.56
iter: 198 11:03:40 -3864.383307c -2.93  -3.49
iter: 199 11:13:44 -3864.384715c -2.73  -3.41
Writing to output.gpw (mode='')

iter: 200 11:23:41 -3864.383042c -2.58  -3.27
iter: 201 11:34:01 -3864.383628c -3.00  -3.52
iter: 202 11:44:11 -3864.383852c -3.69  -3.54
iter: 203 11:54:26 -3864.385613c -2.62  -3.54
iter: 204 12:04:41 -3864.385606c -2.69  -3.34
Writing to output.gpw (mode='')

iter: 205 12:14:56 -3864.385970c -2.91  -3.36
iter: 206 12:25:18 -3864.386364c -2.98  -3.33
iter: 207 12:35:18 -3864.386833c -2.56  -3.29
iter: 208 12:45:43 -3864.386878c -3.24  -3.25
iter: 209 12:55:59 -3864.388609c -2.88  -3.23
Writing to output.gpw (mode='')

iter: 210 13:06:12 -3864.389376c -3.04  -3.14
iter: 211 13:16:25 -3864.388191c -2.42  -3.10
iter: 212 13:26:26 -3864.391158c -2.43  -3.13
iter: 213 13:36:50 -3864.389472c -3.20  -3.07
iter: 214 13:47:00 -3864.388683c -3.02  -3.08
Writing to output.gpw (mode='')

iter: 215 13:57:12 -3864.393043c -1.73  -3.09
iter: 216 14:07:02 -3864.388191c -2.47  -3.07
iter: 217 14:16:57 -3864.387997c -2.42  -3.22
iter: 218 14:27:00 -3864.388407c -2.71  -3.37
iter: 219 14:37:03 -3864.389164c -2.91  -3.48
Writing to output.gpw (mode='')

iter: 220 14:47:06 -3864.390570c -2.71  -3.52
iter: 221 14:57:17 -3864.391039c -2.97  -3.45
iter: 222 15:07:22 -3864.392281c -2.80  -3.39
iter: 223 15:17:07 -3864.393766c -2.46  -3.27
iter: 224 15:27:22 -3864.393915c -2.50  -3.20
Writing to output.gpw (mode='')

iter: 225 15:37:39 -3864.393726c -3.27  -3.15
iter: 226 15:48:06 -3864.391303c -2.84  -3.15
iter: 227 15:58:20 -3864.396333c -2.03  -3.25
iter: 228 16:08:21 -3864.391997c -3.08  -3.09
iter: 229 16:18:34 -3864.394845c -1.73  -3.17
Writing to output.gpw (mode='')

iter: 230 16:28:52 -3864.393823c -3.06  -3.36
iter: 231 16:39:10 -3864.394736c -2.33  -3.40
iter: 232 16:49:25 -3864.394092c -3.02  -3.49
iter: 233 16:59:40 -3864.394660c -3.27  -3.64
iter: 234 17:09:36 -3864.394946c -3.36  -3.64
Writing to output.gpw (mode='')

iter: 235 17:19:56 -3864.395779c -3.06  -3.60
iter: 236 17:30:11 -3864.395347c -3.11  -3.47
iter: 237 17:40:25 -3864.396549c -2.34  -3.53
iter: 238 17:50:46 -3864.397711c -2.76  -3.58
iter: 239 18:00:57 -3864.398257c -2.89  -3.44
Writing to output.gpw (mode='')

iter: 240 18:11:00 -3864.396876c -3.10  -3.35
iter: 241 18:21:10 -3864.400424c -2.48  -3.44
iter: 242 18:31:24 -3864.398446c -3.40  -3.20
iter: 243 18:41:36 -3864.398273c -2.32  -3.23
iter: 244 18:51:27 -3864.398940c -3.00  -3.53
Writing to output.gpw (mode='')

iter: 245 19:01:27 -3864.399352c -3.19  -3.57
iter: 246 19:11:22 -3864.399954c -2.87  -3.60
iter: 247 19:21:16 -3864.400268c -3.44  -3.73
iter: 248 19:31:03 -3864.400595c -3.18  -3.75
iter: 249 19:40:52 -3864.400882c -3.43  -3.78
Writing to output.gpw (mode='')

iter: 250 19:50:46 -3864.401075c -3.62  -3.77
iter: 251 20:00:38 -3864.402705c -2.54  -3.76
iter: 252 20:10:38 -3864.402413c -3.16  -3.47
iter: 253 20:20:43 -3864.402393c -3.14  -3.51
iter: 254 20:30:48 -3864.402852c -3.15  -3.58
Writing to output.gpw (mode='')

iter: 255 20:41:03 -3864.406032c -2.16  -3.57
iter: 256 20:50:57 -3864.405617c -3.31  -3.27
iter: 257 21:00:59 -3864.404105c -2.69  -3.27
iter: 258 21:11:15 -3864.405170c -3.56  -3.55
iter: 259 21:21:16 -3864.409731c -1.88  -3.51
Writing to output.gpw (mode='')

iter: 260 21:31:23 -3864.411765c -2.67  -3.21
iter: 261 21:41:35 -3864.411315c -3.08  -3.12
iter: 262 21:51:45 -3864.411408c -3.15  -3.08
iter: 263 22:01:38 -3864.407150c -2.81  -3.04
iter: 264 22:11:56 -3864.410679c -3.20  -3.15
Writing to output.gpw (mode='')

iter: 265 22:22:09 -3864.407652c -2.98  -3.09
iter: 266 22:32:17 -3864.407587c -2.11  -3.18
iter: 267 22:42:17 -3864.409136c -3.05  -3.56
iter: 268 22:52:47 -3864.410741c -2.77  -3.56
iter: 269 23:03:11 -3864.409940c -2.64  -3.42
Writing to output.gpw (mode='')

iter: 270 23:13:10 -3864.410598c -2.90  -3.70
iter: 271 23:23:24 -3864.410953c -3.24  -3.72
iter: 272 23:33:37 -3864.411247c -3.40  -3.70
iter: 273 23:43:56 -3864.411621c -3.05  -3.69
iter: 274 23:53:53 -3864.412332c -2.93  -3.72
Writing to output.gpw (mode='')

iter: 275 00:04:08 -3864.413376c -2.80  -3.71
iter: 276 00:14:16 -3864.413348c -2.63  -3.54
iter: 277 00:24:26 -3864.413805c -3.27  -3.84
iter: 278 00:34:30 -3864.414165c -3.34  -3.80
iter: 279 00:44:32 -3864.414639c -3.18  -3.70
Writing to output.gpw (mode='')

iter: 280 00:54:40 -3864.414800c -3.43  -3.69
iter: 281 01:05:11 -3864.416708c -2.60  -3.69
iter: 282 01:15:30 -3864.416587c -3.14  -3.38
iter: 283 01:25:34 -3864.416018c -3.07  -3.34
iter: 284 01:35:35 -3864.415939c -2.77  -3.41
Writing to output.gpw (mode='')

iter: 285 01:45:25 -3864.416474c -3.51  -3.59
iter: 286 01:55:30 -3864.417300c -3.14  -3.61
iter: 287 02:05:20 -3864.421306c -2.30  -3.56
iter: 288 02:15:29 -3864.417684c -2.98  -3.15
iter: 289 02:25:20 -3864.419291c -3.46  -3.25
Writing to output.gpw (mode='')

iter: 290 02:35:38 -3864.419168c -3.13  -3.24
iter: 291 02:45:41 -3864.421243c -2.00  -3.25
iter: 292 02:55:51 -3864.450887c -1.32  -3.32
iter: 293 03:05:41 -3864.425766c -2.76  -2.68
iter: 294 03:15:47 -3864.415389c -2.16  -2.72
Writing to output.gpw (mode='')

iter: 295 03:25:48 -3864.421074c -3.01  -2.82
iter: 296 03:35:59 -3864.416933c -1.72  -2.84
iter: 297 03:46:05 -3864.491159c -0.76  -3.14
iter: 298 03:56:12 -3864.428771c -2.33  -2.54
iter: 299 04:06:19 -3864.418629c -2.27  -2.60
Writing to output.gpw (mode='')

iter: 300 04:16:24 -3864.417273c -2.29  -2.65
iter: 301 04:26:27 -3864.449844c -2.52  -2.70
iter: 302 04:36:13 -3864.587949c -0.43  -2.62
iter: 303 04:46:10 -3864.429055c -1.74  -2.32
iter: 304 04:56:08 -3864.378465  -1.36  -2.39
Writing to output.gpw (mode='')

iter: 305 05:05:54 -3864.385556c -1.49  -2.51
iter: 306 05:15:52 -3864.393476c -1.28  -2.61
iter: 307 05:25:56 -3864.414354c -1.11  -2.88
iter: 308 05:35:45 -3864.429948c -1.50  -3.27
iter: 309 05:46:02 -3864.432516c -2.08  -3.28
Writing to output.gpw (mode='')

iter: 310 05:56:05 -3864.434472c -2.43  -3.17
iter: 311 06:05:53 -3864.431816c -2.92  -3.09
iter: 312 06:16:11 -3864.433924c -2.78  -3.09
iter: 313 06:26:27 -3864.430406c -3.25  -3.03
iter: 314 06:36:37 -3864.429542c -3.28  -3.06
Writing to output.gpw (mode='')

iter: 315 06:46:36 -3864.427246c -2.45  -3.08
iter: 316 06:56:32 -3864.429224c -2.27  -3.25
iter: 317 07:06:34 -3864.429915c -2.85  -3.32
iter: 318 07:16:34 -3864.433918c -2.19  -3.35
iter: 319 07:26:30 -3864.433577c -2.88  -3.22
Writing to output.gpw (mode='')

iter: 320 07:36:46 -3864.430391c -2.75  -3.18
iter: 321 07:46:53 -3864.431604c -3.39  -3.32
iter: 322 07:57:07 -3864.433686c -2.03  -3.29
iter: 323 08:07:13 -3864.437176c -2.26  -3.31
iter: 324 08:17:04 -3864.433975c -3.41  -3.14
Writing to output.gpw (mode='')

iter: 325 08:27:22 -3864.513840c -0.97  -3.15
iter: 326 08:37:40 -3864.453965c -2.47  -2.41
iter: 327 08:47:33 -3864.451046c -2.76  -2.43
iter: 328 08:57:19 -3864.482039c -2.47  -2.44
iter: 329 09:07:27 -3864.435991c -2.25  -2.41
Writing to output.gpw (mode='')

iter: 330 09:17:51 -3865.714041  +0.07  -2.47
iter: 331 09:27:50 -3864.055960  -0.61  -1.74
iter: 332 09:37:50 -3864.035423  -0.85  -1.82
iter: 333 09:48:05 -3864.073710c -0.94  -1.86
iter: 334 09:58:21 -3864.136935c -1.09  -1.89
Writing to output.gpw (mode='')

iter: 335 10:08:21 -3864.177827c -1.09  -1.92
iter: 336 10:18:31 -3864.595621  -2.22  -1.96
iter: 337 10:28:40 -3864.189683  -0.59  -1.95
iter: 338 10:38:43 -3864.335231  +0.24  -2.07
iter: 339 10:48:43 -3864.384313  -1.31  -2.77
Writing to output.gpw (mode='')

iter: 340 10:58:53 -3864.623702  -0.58  -2.90
iter: 341 11:08:50 -3864.400374  -1.57  -2.34
iter: 342 11:19:14 -3864.478589  -0.26  -2.46
iter: 343 11:28:58 -3864.656428  -0.46  -2.75
iter: 344 11:39:11 -3864.580880c -1.43  -2.42
Writing to output.gpw (mode='')

iter: 345 11:49:21 -3864.610040c -1.53  -2.38
iter: 346 11:59:48 -3864.859591  -0.66  -2.33
iter: 347 12:10:04 -3865.340855  -0.21  -2.15
iter: 348 12:20:03 -3865.542451  -0.38  -1.98
iter: 349 12:29:52 -3864.166261  -0.67  -1.89
Writing to output.gpw (mode='')

iter: 350 12:40:14 -3864.157793  -0.98  -2.07
iter: 351 12:50:18 -3864.200733c -1.10  -2.13
iter: 352 13:00:27 -3864.269910c -1.22  -2.18
iter: 353 13:10:43 -3864.255002c -0.94  -2.24
iter: 354 13:20:52 -3864.348317c -1.52  -2.36
Writing to output.gpw (mode='')

iter: 355 13:31:01 -3864.537624  -2.06  -2.41
iter: 356 13:41:06 -3864.383527  -1.52  -2.30
iter: 357 13:51:24 -3865.315416  -0.09  -2.40
iter: 358 14:01:38 -3864.800909  -1.60  -1.96
iter: 359 14:11:42 -3864.176986  -0.48  -1.98
Writing to output.gpw (mode='')

iter: 360 14:21:49 -3864.168976  -0.72  -2.20
iter: 361 14:31:47 -3864.807583  +0.35  -2.33
iter: 362 14:41:37 -3864.898364  -0.36  -2.36
iter: 363 14:51:47 -3864.392062  -1.55  -2.20
iter: 364 15:01:55 -3864.421398  -2.21  -2.44
Writing to output.gpw (mode='')

iter: 365 15:12:08 -3864.440502c -2.59  -2.46
iter: 366 15:22:19 -3864.520180c -1.97  -2.48
iter: 367 15:32:15 -3864.570021c -0.26  -2.41
iter: 368 15:42:13 -3864.527153c -1.45  -2.50
iter: 369 15:52:22 -3864.478495c -2.17  -2.47
Writing to output.gpw (mode='')

iter: 370 16:02:27 -3864.484138c -2.41  -2.50
iter: 371 16:12:33 -3864.436603c -2.02  -2.48
iter: 372 16:22:49 -3864.442975c -0.74  -2.57
iter: 373 16:33:01 -3864.464003c -1.40  -3.04
iter: 374 16:42:55 -3864.521326c -1.03  -2.89
Writing to output.gpw (mode='')

iter: 375 16:53:16 -3864.511323c -1.64  -2.60
iter: 376 17:03:10 -3864.487776c -2.28  -2.54
iter: 377 17:13:10 -3864.497170c -2.24  -2.53
iter: 378 17:23:10 -3864.419320c -1.76  -2.49
iter: 379 17:33:16 -3864.426292c -1.90  -2.67
Writing to output.gpw (mode='')

iter: 380 17:43:20 -3864.427200c -1.34  -2.72
iter: 381 17:53:20 -3864.456349c -1.08  -2.90
iter: 382 18:03:11 -3864.449185c -2.44  -3.06
iter: 383 18:13:06 -3864.444606c -2.54  -3.12
iter: 384 18:23:18 -3864.448448c -1.90  -3.26
Writing to output.gpw (mode='')

iter: 385 18:33:23 -3864.446899c -3.43  -3.26
iter: 386 18:43:43 -3864.456193c -1.64  -3.32
iter: 387 18:54:02 -3864.447328c -3.00  -3.04
iter: 388 19:04:19 -3864.461031c -1.36  -3.13
iter: 389 19:14:29 -3864.461498c -2.33  -2.94
Writing to output.gpw (mode='')

iter: 390 19:24:40 -3864.463546c -2.44  -2.89
iter: 391 19:35:03 -3864.466258c -2.55  -2.83
iter: 392 19:45:17 -3864.458691c -3.18  -2.79
iter: 393 19:55:57 -3864.493894c -1.59  -2.78
iter: 394 20:05:49 -3864.448642c -2.69  -2.58
Writing to output.gpw (mode='')

iter: 395 20:16:04 -3864.446250c -2.88  -2.66
iter: 396 20:26:20 -3864.453965c -3.56  -2.68
iter: 397 20:36:27 -3864.440109c -1.44  -2.68
iter: 398 20:46:35 -3864.528871c -0.64  -3.08
iter: 399 20:56:33 -3864.473259c -2.47  -2.55
Writing to output.gpw (mode='')

iter: 400 21:06:34 -3864.450447c -2.34  -2.57
iter: 401 21:16:40 -3864.448841c -2.57  -2.63
iter: 402 21:26:44 -3864.457542c -3.17  -2.66
iter: 403 21:36:58 -3864.495812c -0.79  -2.65
iter: 404 21:47:15 -3864.489238c -1.97  -2.60
Writing to output.gpw (mode='')

iter: 405 21:57:21 -3864.445803c -2.27  -2.57
iter: 406 22:07:27 -3864.432607c -1.71  -2.66
iter: 407 22:17:33 -3864.437677c -1.95  -2.80
iter: 408 22:27:35 -3864.441330c -1.97  -2.92
iter: 409 22:38:04 -3864.448390c -1.63  -3.11
Writing to output.gpw (mode='')

iter: 410 22:48:04 -3864.451321c -2.29  -3.42
iter: 411 22:57:57 -3864.452568c -2.56  -3.43
iter: 412 23:07:55 -3864.454738c -2.57  -3.39
iter: 413 23:18:00 -3864.455892c -2.66  -3.26
iter: 414 23:27:33 -3864.452693c -3.06  -3.18
Writing to output.gpw (mode='')

iter: 415 23:37:21 -3864.451582c -2.98  -3.24
iter: 416 23:46:56 -3864.452116c -3.08  -3.30
iter: 417 23:56:54 -3864.453411c -3.50  -3.31
iter: 418 00:07:04 -3864.458086c -1.72  -3.27
iter: 419 00:17:17 -3864.455113c -3.16  -3.14
Writing to output.gpw (mode='')

iter: 420 00:27:27 -3864.458933c -2.61  -3.15
iter: 421 00:37:33 -3864.479965c -1.18  -3.04
iter: 422 00:47:33 -3864.477258c -2.20  -2.79
iter: 423 00:57:40 -3864.474909c -2.53  -2.75
iter: 424 01:07:49 -3864.448513c -2.45  -2.72
Writing to output.gpw (mode='')

iter: 425 01:17:48 -3864.444173c -1.60  -2.85
iter: 426 01:27:34 -3864.449919c -2.19  -3.18
iter: 427 01:37:36 -3864.469908c -2.01  -3.31
iter: 428 01:47:26 -3864.450691c -2.65  -2.92
iter: 429 01:57:25 -3864.452581c -1.72  -3.09
Writing to output.gpw (mode='')

iter: 430 02:07:15 -3864.468996c -1.43  -3.41
iter: 431 02:17:28 -3864.452855c -2.33  -3.02
iter: 432 02:27:22 -3864.454737c -2.60  -3.48
iter: 433 02:37:35 -3864.456693c -2.48  -3.60
iter: 434 02:47:44 -3864.457665c -3.03  -3.49
Writing to output.gpw (mode='')

iter: 435 02:57:50 -3864.460437c -2.61  -3.38
iter: 436 03:07:58 -3864.460184c -2.98  -3.20
iter: 437 03:18:08 -3864.460484c -3.08  -3.13
iter: 438 03:28:17 -3864.460399c -3.13  -3.08
iter: 439 03:38:41 -3864.462013c -3.04  -3.04
Writing to output.gpw (mode='')

iter: 440 03:48:58 -3864.472563c -2.15  -2.98
iter: 441 03:59:04 -3864.456080c -3.20  -2.84
iter: 442 04:09:02 -3864.460453c -3.76  -2.92
iter: 443 04:18:59 -3864.467333c -2.40  -2.91
iter: 444 04:28:55 -3864.475303c -2.16  -2.81
Writing to output.gpw (mode='')

iter: 445 04:38:43 -3864.669675  -0.61  -2.72
iter: 446 04:48:45 -3864.401808  -1.48  -2.18
iter: 447 04:58:44 -3864.360434  -1.29  -2.28
iter: 448 05:09:11 -3864.378036c -1.39  -2.35
iter: 449 05:19:12 -3864.382254c -1.11  -2.42
Writing to output.gpw (mode='')

iter: 450 05:29:16 -3864.403359c -1.06  -2.62
iter: 451 05:39:28 -3864.461453c -0.78  -2.85
iter: 452 05:49:38 -3864.472885c -1.48  -3.12
iter: 453 05:59:37 -3864.462429c -2.39  -2.96
iter: 454 06:09:36 -3864.463321c -2.71  -3.07
Writing to output.gpw (mode='')

iter: 455 06:19:42 -3864.461797c -2.80  -3.03
iter: 456 06:29:52 -3864.468458c -2.69  -3.03
iter: 457 06:40:00 -3864.457745c -1.81  -2.95
iter: 458 06:50:31 -3864.459948c -2.84  -3.34
iter: 459 07:00:51 -3864.462207c -2.48  -3.28
Writing to output.gpw (mode='')

iter: 460 07:11:08 -3864.469051c -1.96  -3.25
iter: 461 07:21:19 -3864.458445c -3.01  -3.05
iter: 462 07:31:26 -3864.576534c -0.60  -3.27
iter: 463 07:41:38 -3864.504146c -2.26  -2.40
iter: 464 07:51:30 -3864.558097c -1.82  -2.41
Writing to output.gpw (mode='')

iter: 465 08:01:25 -3864.618970c -1.27  -2.36
iter: 466 08:11:21 -3864.462063c -2.22  -2.27
iter: 467 08:21:30 -3864.407831  -0.60  -2.34
iter: 468 08:31:40 -3864.457985c -2.49  -2.79
iter: 469 08:41:47 -3864.464610c -2.97  -2.73
Writing to output.gpw (mode='')

iter: 470 08:51:45 -3864.610401c -0.43  -2.72
iter: 471 09:01:45 -3864.396341  -1.43  -2.34
iter: 472 09:11:59 -3864.465263  -0.28  -2.52
iter: 473 09:22:19 -3864.502065c -1.02  -3.15
iter: 474 09:32:47 -3864.527948c -1.20  -2.83
Writing to output.gpw (mode='')

iter: 475 09:42:46 -3864.510291c -1.95  -2.66
iter: 476 09:53:03 -3864.504277c -2.32  -2.62
iter: 477 10:03:11 -3864.641181c -0.89  -2.59
iter: 478 10:13:22 -3864.466242c -2.14  -2.34
iter: 479 10:23:31 -3864.492885c -2.75  -2.45
Writing to output.gpw (mode='')

iter: 480 10:33:37 -3864.432884c -1.37  -2.44
iter: 481 10:43:35 -3864.432300c -1.30  -2.61
iter: 482 10:53:34 -3864.553319c -0.49  -2.83
iter: 483 11:03:51 -3864.515662c -1.92  -2.61
iter: 484 11:14:06 -3864.435548c -1.64  -2.58
Writing to output.gpw (mode='')

iter: 485 11:24:24 -3864.447592c -2.18  -2.94
iter: 486 11:34:15 -3864.460857c -3.39  -3.05
iter: 487 11:44:24 -3864.460575c -3.39  -3.04
iter: 488 11:54:58 -3864.470163c -1.34  -3.08
iter: 489 12:05:12 -3864.472201c -2.07  -3.22
Writing to output.gpw (mode='')

iter: 490 12:15:27 -3864.469905c -2.79  -3.11
iter: 491 12:25:43 -3864.462652c -2.76  -3.08
iter: 492 12:36:10 -3864.463569c -3.39  -3.29
iter: 493 12:46:20 -3864.464358c -2.18  -3.32
iter: 494 12:56:25 -3864.466117c -2.49  -3.46
Writing to output.gpw (mode='')

iter: 495 13:06:26 -3864.466160c -3.04  -3.43
iter: 496 13:16:28 -3864.465446c -3.41  -3.44
iter: 497 13:26:37 -3864.465230c -2.76  -3.51
iter: 498 13:36:49 -3864.465468c -3.79  -3.66
iter: 499 13:46:49 -3864.467856c -2.29  -3.63
Writing to output.gpw (mode='')

iter: 500 13:56:41 -3864.471307c -2.36  -3.31
iter: 501 14:06:50 -3864.469102c -3.40  -3.13
iter: 502 14:16:59 -3864.466749c -3.43  -3.12
iter: 503 14:27:06 -3864.465236c -2.36  -3.16
iter: 504 14:37:22 -3864.467148c -2.18  -3.51
Writing to output.gpw (mode='')

iter: 505 14:47:20 -3864.467542c -2.95  -3.67
iter: 506 14:57:30 -3864.467379c -2.75  -3.60
iter: 507 15:07:39 -3864.467610c -3.35  -3.75
iter: 508 15:17:48 -3864.467401c -3.91  -3.67
iter: 509 15:27:49 -3864.467775c -3.71  -3.66
Writing to output.gpw (mode='')

iter: 510 15:37:50 -3864.467180c -3.48  -3.59
iter: 511 15:47:37 -3864.467509c -3.92  -3.73
iter: 512 15:57:42 -3864.467504c -3.60  -3.70
iter: 513 16:07:38 -3864.467951c -2.84  -3.73
iter: 514 16:17:39 -3864.468929c -2.74  -3.69
Writing to output.gpw (mode='')

iter: 515 16:27:41 -3864.468455c -2.82  -3.50
iter: 516 16:38:01 -3864.469012c -3.04  -3.60
iter: 517 16:48:15 -3864.469303c -2.75  -3.57
iter: 518 16:58:17 -3864.468828c -3.73  -3.53
iter: 519 17:08:11 -3864.468820c -3.26  -3.53
Writing to output.gpw (mode='')

iter: 520 17:18:32 -3864.468902c -3.33  -3.62
iter: 521 17:28:45 -3864.470902c -2.38  -3.70
iter: 522 17:38:38 -3864.468855c -3.41  -3.36
iter: 523 17:48:39 -3864.468790c -2.94  -3.49
iter: 524 17:58:49 -3864.469175c -3.41  -3.62
Writing to output.gpw (mode='')

iter: 525 18:09:05 -3864.469406c -3.22  -3.66
iter: 526 18:19:07 -3864.469622c -3.43  -3.71
iter: 527 18:29:01 -3864.471854c -2.42  -3.74
iter: 528 18:39:01 -3864.473482c -2.70  -3.40
iter: 529 18:49:07 -3864.470354c -3.71  -3.25
Writing to output.gpw (mode='')

iter: 530 18:59:13 -3864.469525c -3.01  -3.32
iter: 531 19:09:01 -3864.475172c -1.78  -3.45
iter: 532 19:18:57 -3864.468762c -2.51  -3.15
iter: 533 19:29:10 -3864.470638c -2.20  -3.54
iter: 534 19:39:05 -3864.470960c -3.62  -3.83
Writing to output.gpw (mode='')

iter: 535 19:49:14 -3864.477682c -1.88  -3.78
iter: 536 19:59:24 -3864.481036c -2.23  -3.16
iter: 537 20:09:22 -3864.485598c -2.18  -3.03
iter: 538 20:19:21 -3864.488184c -2.28  -2.92
iter: 539 20:29:15 -3864.478744c -3.64  -2.84
Writing to output.gpw (mode='')

iter: 540 20:39:14 -3864.481171c -3.40  -2.85
iter: 541 20:49:23 -3864.483268c -3.09  -2.82
iter: 542 20:59:25 -3864.479676c -3.44  -2.79
iter: 543 21:09:24 -3864.468967c -1.62  -2.79
iter: 544 21:19:15 -3864.471140c -2.65  -3.48
Writing to output.gpw (mode='')

iter: 545 21:29:32 -3864.475335c -2.45  -3.49
iter: 546 21:39:27 -3864.486818c -1.80  -3.28
iter: 547 21:49:46 -3864.475494c -3.65  -2.97
iter: 548 21:59:53 -3864.472332c -3.26  -3.02
iter: 549 22:09:49 -3864.471696c -3.14  -3.07
Writing to output.gpw (mode='')

iter: 550 22:20:14 -3864.482416c -1.48  -3.13
iter: 551 22:30:22 -3864.472546c -2.86  -2.97
iter: 552 22:40:45 -3864.472473c -1.71  -3.06
iter: 553 22:50:58 -3864.473390c -2.85  -3.70
iter: 554 23:00:45 -3864.473560c -3.46  -3.69
Writing to output.gpw (mode='')

iter: 555 23:10:39 -3864.473725c -3.36  -3.70
iter: 556 23:20:43 -3864.474129c -3.39  -3.75
iter: 557 23:31:00 -3864.476860c -2.37  -3.71
iter: 558 23:40:59 -3864.474671c -3.72  -3.30
iter: 559 23:50:58 -3864.474389c -2.36  -3.34
Writing to output.gpw (mode='')

iter: 560 00:01:04 -3864.474720c -2.92  -3.76
iter: 561 00:11:20 -3864.474278c -3.93  -3.72
iter: 562 00:21:23 -3864.474471c -3.29  -3.78
iter: 563 00:31:30 -3864.477999c -2.18  -3.80
iter: 564 00:41:43 -3864.479927c -1.76  -3.19
Writing to output.gpw (mode='')

iter: 565 00:51:48 -3864.487959c -2.08  -3.23
iter: 566 01:01:46 -3864.475077c -3.64  -3.03
iter: 567 01:11:55 -3864.476062c -4.15  -3.16
iter: 568 01:22:17 -3864.481477c -2.51  -3.16
iter: 569 01:32:34 -3864.476675c -3.76  -3.00
Writing to output.gpw (mode='')

iter: 570 01:42:39 -3864.478394c -3.63  -3.04
iter: 571 01:52:41 -3864.477262c -3.84  -3.01
iter: 572 02:02:58 -3864.479134c -1.92  -3.02
iter: 573 02:13:05 -3864.473954c -2.20  -3.16
iter: 574 02:23:15 -3864.475571c -2.75  -3.71
Writing to output.gpw (mode='')

iter: 575 02:33:21 -3864.477010c -2.71  -3.69
iter: 576 02:43:18 -3864.475895c -3.61  -3.56
iter: 577 02:53:27 -3864.476323c -3.12  -3.76
iter: 578 03:03:33 -3864.481969c -1.98  -3.71
iter: 579 03:13:56 -3864.489883c -1.93  -3.12
Writing to output.gpw (mode='')

iter: 580 03:24:23 -3864.483342c -3.29  -2.91
iter: 581 03:34:35 -3864.560092c -1.01  -2.91
iter: 582 03:44:51 -3864.536230c -2.29  -2.40
iter: 583 03:54:56 -3864.552399c -2.32  -2.39
iter: 584 04:05:10 -3864.523126c -3.05  -2.37
Writing to output.gpw (mode='')

iter: 585 04:15:05 -3864.535993c -2.82  -2.37
iter: 586 04:25:12 -3864.716860  -0.29  -2.36
iter: 587 04:35:08 -3864.361941  -1.18  -2.20
iter: 588 04:45:14 -3864.389263  -1.53  -2.38
iter: 589 04:55:14 -3864.424979c -1.91  -2.44
Writing to output.gpw (mode='')

iter: 590 05:05:24 -3864.422510c -1.80  -2.48
iter: 591 05:15:35 -3864.509300c -0.32  -2.54
iter: 592 05:25:42 -3864.565356c -0.81  -2.89
iter: 593 05:35:41 -3864.540758c -1.63  -2.61
iter: 594 05:45:38 -3864.455896c -1.86  -2.56
Writing to output.gpw (mode='')

iter: 595 05:55:45 -3864.455197c -2.02  -2.83
iter: 596 06:06:05 -3864.462982c -2.39  -2.95
iter: 597 06:16:19 -3864.529418c -1.50  -3.04
iter: 598 06:26:21 -3864.459284c -1.95  -2.65
iter: 599 06:36:17 -3864.516636c -0.67  -2.89
Writing to output.gpw (mode='')

iter: 600 06:46:27 -3864.473261c -1.95  -2.85
iter: 601 06:56:23 -3864.517594c -0.98  -3.54
iter: 602 07:06:29 -3864.533000c -1.36  -2.87
iter: 603 07:16:42 -3864.556328c -1.33  -2.71
iter: 604 07:26:46 -3864.557467c -1.67  -2.57
Writing to output.gpw (mode='')

iter: 605 07:37:02 -3864.554567c -1.95  -2.50
iter: 606 07:47:09 -3864.640978c -1.17  -2.45
iter: 607 07:57:23 -3864.496419c -2.57  -2.31
iter: 608 08:07:25 -3864.499225c -3.22  -2.38
iter: 609 08:17:46 -3864.467097c -1.98  -2.39
Writing to output.gpw (mode='')

iter: 610 08:27:59 -3864.462809c -1.94  -2.44
iter: 611 08:38:07 -3864.457510c -1.40  -2.50
iter: 612 08:48:00 -3864.580280c -0.39  -2.67
iter: 613 08:58:11 -3864.490396c -2.01  -2.51
iter: 614 09:08:27 -3864.471109c -1.99  -2.59
Writing to output.gpw (mode='')

iter: 615 09:18:33 -3864.483116c -2.62  -2.65
iter: 616 09:28:35 -3864.470941c -2.25  -2.65
iter: 617 09:38:36 -3865.021769  -0.06  -2.72
iter: 618 09:48:45 -3864.471723  -1.30  -1.98
iter: 619 09:58:51 -3864.313881  -0.91  -2.04
Writing to output.gpw (mode='')

iter: 620 10:08:59 -3864.326491c -0.95  -2.12
iter: 621 10:19:00 -3864.356702c -1.26  -2.20
iter: 622 10:29:04 -3864.439731c -2.09  -2.26
iter: 623 10:38:54 -3864.431744c -2.00  -2.28
iter: 624 10:48:52 -3864.461328c -0.19  -2.30
Writing to output.gpw (mode='')

iter: 625 10:59:04 -3864.730345  -0.25  -2.99
iter: 626 11:09:14 -3864.672945  -1.27  -2.37
iter: 627 11:19:12 -3864.677191c -1.53  -2.32
iter: 628 11:29:21 -3864.850730c -1.00  -2.27
iter: 629 11:39:46 -3864.825213c -1.34  -2.16
Writing to output.gpw (mode='')

iter: 630 11:50:00 -3865.302899  -0.39  -2.12
iter: 631 12:00:10 -3864.311129  -1.08  -1.97
iter: 632 12:10:07 -3864.339494  -1.55  -2.12
iter: 633 12:20:21 -3864.271550c -1.01  -2.16
iter: 634 12:30:26 -3864.415258c -0.02  -2.24
Writing to output.gpw (mode='')

iter: 635 12:40:48 -3864.646554  -0.32  -3.06
iter: 636 12:51:20 -3864.598872  -1.39  -2.56
iter: 637 13:01:37 -3864.495935c -2.06  -2.48
iter: 638 13:11:35 -3864.480098c -2.21  -2.58
iter: 639 13:21:29 -3864.483819c -2.50  -2.61
Writing to output.gpw (mode='')

iter: 640 13:31:33 -3864.484558c -2.83  -2.62
iter: 641 13:41:46 -3864.967411  -0.01  -2.62
iter: 642 13:51:54 -3864.443085  -1.32  -2.04
iter: 643 14:01:38 -3864.373579  -1.24  -2.12
iter: 644 14:11:47 -3864.416828c -1.70  -2.17
Writing to output.gpw (mode='')

iter: 645 14:21:49 -3864.471930c -2.26  -2.20
iter: 646 14:31:57 -3868.497961  +0.73  -2.21
iter: 647 14:42:04 -3864.779813  -0.51  -1.53
iter: 648 14:52:03 -3862.567046  +0.27  -1.59
iter: 649 15:01:57 -3862.928189  +0.02  -1.72
Writing to output.gpw (mode='')

iter: 650 15:12:05 -3863.827137  -0.83  -1.80
iter: 651 15:22:01 -3869.310330  +1.32  -1.83
iter: 652 15:32:17 -3865.010808  -0.43  -1.67
iter: 653 15:42:25 -3864.824858  +0.92  -1.76
iter: 654 15:52:20 -3869.075129  +0.87  -2.30
Writing to output.gpw (mode='')

iter: 655 16:02:39 -3868.453106  +0.05  -1.77
iter: 656 16:13:01 -3867.528446  -0.46  -1.70
iter: 657 16:23:04 -3864.173019  -0.80  -1.66
iter: 658 16:33:08 -3864.714780  +1.01  -1.78
iter: 659 16:43:04 -3865.080413  +0.06  -2.41
Writing to output.gpw (mode='')

iter: 660 16:53:00 -3864.833335  +0.04  -2.20
iter: 661 17:02:47 -3864.632851  -1.19  -2.39
iter: 662 17:12:51 -3864.403724  -0.96  -2.39
iter: 663 17:22:50 -3864.467459  -1.11  -2.98
iter: 664 17:32:39 -3864.504002c -1.44  -3.05
Writing to output.gpw (mode='')

iter: 665 17:42:42 -3864.570138c -1.10  -2.90
iter: 666 17:52:50 -3864.577312c -1.59  -2.65
iter: 667 18:03:12 -3864.858911  -0.58  -2.54
iter: 668 18:13:17 -3865.140494  -0.42  -2.25
iter: 669 18:23:29 -3865.442512  -0.30  -2.10
Writing to output.gpw (mode='')

iter: 670 18:33:37 -3864.637074  -2.05  -1.97
iter: 671 18:43:50 -3864.326933  +0.04  -2.04
iter: 672 18:53:59 -3864.453091  -0.70  -2.83
iter: 673 19:04:15 -3864.482621c -1.55  -3.07
iter: 674 19:14:18 -3864.480312c -2.12  -2.99
Writing to output.gpw (mode='')

iter: 675 19:24:24 -3864.488307c -2.31  -3.06
iter: 676 19:34:41 -3864.480756c -1.47  -2.99
iter: 677 19:44:53 -3864.483768c -1.87  -3.24
iter: 678 19:55:22 -3864.480300c -2.89  -3.20
iter: 679 20:05:37 -3864.479656c -2.01  -3.23
Writing to output.gpw (mode='')

iter: 680 20:15:39 -3864.482579c -2.24  -3.50
iter: 681 20:25:41 -3864.481543c -3.07  -3.37
iter: 682 20:35:55 -3864.482376c -2.96  -3.38
iter: 683 20:46:26 -3864.481892c -2.20  -3.35
iter: 684 20:56:48 -3864.481879c -3.24  -3.55
Writing to output.gpw (mode='')

iter: 685 21:06:47 -3864.481513c -3.62  -3.60
iter: 686 21:16:47 -3864.481529c -3.52  -3.70
iter: 687 21:26:56 -3864.481739c -3.62  -3.76
iter: 688 21:37:05 -3864.482077c -2.96  -3.74
iter: 689 21:47:09 -3864.481980c -3.58  -3.74
Writing to output.gpw (mode='')

iter: 690 21:57:12 -3864.483050c -2.63  -3.85
iter: 691 22:07:01 -3864.483340c -3.19  -3.57
iter: 692 22:17:04 -3864.484179c -2.99  -3.47
iter: 693 22:27:02 -3864.482282c -3.98  -3.33
iter: 694 22:37:17 -3864.482617c -4.28  -3.43
Writing to output.gpw (mode='')

iter: 695 22:47:20 -3864.484100c -3.05  -3.43
iter: 696 22:57:20 -3864.487302c -2.44  -3.27
iter: 697 23:07:37 -3864.484130c -4.05  -3.06
iter: 698 23:17:38 -3864.481903c -2.91  -3.08
iter: 699 23:27:45 -3864.481820c -3.23  -3.22
Writing to output.gpw (mode='')

iter: 700 23:37:47 -3864.481816c -3.19  -3.29
iter: 701 23:48:05 -3864.482118c -3.34  -3.38
iter: 702 23:58:15 -3864.482630c -2.47  -3.46
iter: 703 00:08:28 -3864.483568c -2.73  -3.74
iter: 704 00:18:23 -3864.483384c -3.60  -3.65
Writing to output.gpw (mode='')

iter: 705 00:28:40 -3864.483106c -2.97  -3.64
iter: 706 00:38:41 -3864.483201c -3.79  -3.90
iter: 707 00:49:01 -3864.483965c -2.97  -3.85
iter: 708 00:59:00 -3864.484410c -3.09  -3.60
iter: 709 01:09:06 -3864.484829c -3.12  -3.48
Writing to output.gpw (mode='')

iter: 710 01:19:02 -3864.484072c -4.15  -3.37
iter: 711 01:29:26 -3864.489087c -2.26  -3.36
iter: 712 01:39:27 -3864.491481c -2.64  -3.04
iter: 713 01:49:25 -3864.487048c -3.92  -2.96
iter: 714 01:59:21 -3864.483565c -3.33  -2.97
Writing to output.gpw (mode='')

iter: 715 02:09:36 -3864.481820c -2.78  -3.02
iter: 716 02:19:27 -3864.485610c -3.87  -3.14
iter: 717 02:29:31 -3864.498241c -1.46  -3.09
iter: 718 02:39:13 -3864.481711c -2.72  -2.83
iter: 719 02:49:21 -3864.477659c -2.30  -2.91
Writing to output.gpw (mode='')

iter: 720 02:59:18 -3864.478880c -2.07  -3.03
iter: 721 03:09:03 -3864.480845c -2.49  -3.29
iter: 722 03:18:59 -3864.482719c -2.33  -3.45
iter: 723 03:29:05 -3864.483328c -3.57  -3.84
iter: 724 03:39:18 -3864.483530c -3.92  -3.87
Writing to output.gpw (mode='')

iter: 725 03:49:34 -3864.483821c -3.20  -3.92
iter: 726 03:59:39 -3864.484096c -3.26  -3.99
iter: 727 04:09:38 -3864.483808c -3.73  -3.84
iter: 728 04:19:46 -3864.483900c -4.35  -4.12c
iter: 729 04:30:02 -3864.483914c -4.53  -4.08c
Writing to output.gpw (mode='')

iter: 730 04:40:06 -3864.483945c -4.31  -4.10c
iter: 731 04:50:13 -3864.483989c -4.31  -4.13c
iter: 732 05:00:14 -3864.484025c -4.27  -4.18c
iter: 733 05:10:17 -3864.484064c -4.26  -4.14c
iter: 734 05:20:41 -3864.484087c -4.44  -4.09c
Writing to output.gpw (mode='')

iter: 735 05:30:53 -3864.484180c -3.58  -4.07c
iter: 736 05:40:52 -3864.484228c -3.82  -4.01c
iter: 737 05:50:59 -3864.484864c -2.92  -3.93
iter: 738 06:01:08 -3864.485174c -3.44  -3.58
iter: 739 06:11:03 -3864.484198c -4.22  -3.49
Writing to output.gpw (mode='')

iter: 740 06:21:17 -3864.487005c -2.57  -3.57
iter: 741 06:31:15 -3864.483159c -3.13  -3.22
iter: 742 06:41:25 -3864.483300c -2.99  -3.40
iter: 743 06:51:46 -3864.483888c -3.55  -3.53
iter: 744 07:01:49 -3864.483936c -3.25  -3.59
Writing to output.gpw (mode='')

iter: 745 07:11:49 -3864.485643c -2.31  -3.74
iter: 746 07:22:07 -3864.485342c -3.28  -3.56
iter: 747 07:32:08 -3864.484865c -4.06  -3.51
iter: 748 07:42:35 -3864.484401c -3.75  -3.54
iter: 749 07:52:32 -3864.484301c -3.50  -3.63
Writing to output.gpw (mode='')

iter: 750 08:02:38 -3864.484435c -3.94  -3.75
iter: 751 08:12:32 -3864.484481c -3.17  -3.83
iter: 752 08:22:31 -3864.485041c -2.90  -4.13c
iter: 753 08:32:36 -3864.485003c -3.77  -3.74
iter: 754 08:42:37 -3864.484880c -4.23  -3.68
Writing to output.gpw (mode='')

iter: 755 08:52:31 -3864.485152c -3.81  -3.66
iter: 756 09:02:29 -3864.485518c -3.45  -3.58
iter: 757 09:12:20 -3864.485454c -3.90  -3.46
iter: 758 09:22:15 -3864.484959c -4.26  -3.43
iter: 759 09:32:08 -3864.484909c -4.51  -3.46
Writing to output.gpw (mode='')

iter: 760 09:42:03 -3864.484682c -3.93  -3.47
iter: 761 09:52:08 -3864.484609c -3.68  -3.53
iter: 762 10:02:02 -3864.485892c -2.40  -3.61
iter: 763 10:12:05 -3864.485029c -3.86  -3.47
iter: 764 10:22:08 -3864.484621c -3.42  -3.53
Writing to output.gpw (mode='')

iter: 765 10:31:58 -3864.484741c -4.04  -3.71
iter: 766 10:42:08 -3864.484745c -3.64  -3.76
iter: 767 10:52:17 -3864.484892c -3.25  -3.92
iter: 768 11:02:24 -3864.485022c -3.57  -4.18c
iter: 769 11:12:43 -3864.485061c -4.03  -4.15c
Writing to output.gpw (mode='')

iter: 770 11:22:56 -3864.485093c -4.23  -4.05c
iter: 771 11:32:58 -3864.485194c -3.98  -3.97
iter: 772 11:43:42 -3864.485129c -4.54  -3.85
iter: 773 11:53:45 -3864.485188c -4.54  -3.84
iter: 774 12:04:02 -3864.485033c -4.02  -3.80
Writing to output.gpw (mode='')

iter: 775 12:14:20 -3864.485156c -4.45  -3.98
iter: 776 12:24:21 -3864.485303c -3.11  -3.90
iter: 777 12:34:33 -3864.485347c -3.98  -3.86
iter: 778 12:44:49 -3864.485152c -4.32  -3.80
iter: 779 12:54:59 -3864.485242c -4.52  -3.90
Writing to output.gpw (mode='')

iter: 780 13:05:18 -3864.487401c -2.52  -3.87
iter: 781 13:15:42 -3864.487887c -3.31  -3.20
iter: 782 13:25:55 -3864.486073c -4.15  -3.15
iter: 783 13:36:07 -3864.485878c -4.18  -3.18
iter: 784 13:46:15 -3864.484610c -2.99  -3.19
Writing to output.gpw (mode='')

iter: 785 13:56:17 -3864.485158c -3.84  -3.35
iter: 786 14:06:28 -3864.485298c -2.37  -3.37
iter: 787 14:16:24 -3864.487333c -2.40  -3.78
iter: 788 14:26:35 -3864.486140c -3.71  -3.38
iter: 789 14:36:51 -3864.485575c -3.94  -3.40
Writing to output.gpw (mode='')

iter: 790 14:46:59 -3864.485635c -4.16  -3.44
iter: 791 14:57:02 -3864.485518c -2.57  -3.45
iter: 792 15:07:06 -3864.485454c -4.02  -3.97
iter: 793 15:17:02 -3864.485491c -4.07  -4.08c
iter: 794 15:26:48 -3864.485528c -4.32  -4.10c
Writing to output.gpw (mode='')

iter: 795 15:36:46 -3864.485552c -3.87  -4.13c
iter: 796 15:46:54 -3864.485753c -3.46  -4.21c
iter: 797 15:56:50 -3864.485566c -4.65  -3.91
iter: 798 16:06:45 -3864.486239c -3.09  -4.00c
iter: 799 16:16:51 -3864.486163c -4.04  -3.49
Writing to output.gpw (mode='')

iter: 800 16:26:59 -3864.486944c -3.23  -3.46
iter: 801 16:37:16 -3864.487213c -3.43  -3.33
iter: 802 16:47:26 -3864.485305c -3.59  -3.27
iter: 803 16:57:27 -3864.486881c -3.66  -3.39
iter: 804 17:07:29 -3864.485999c -4.16  -3.30
Writing to output.gpw (mode='')

iter: 805 17:17:40 -3864.485989c -2.36  -3.33
iter: 806 17:27:58 -3864.485903c -3.71  -3.78
iter: 807 17:38:13 -3864.486007c -2.95  -3.77
iter: 808 17:48:07 -3864.486305c -3.36  -3.91
iter: 809 17:57:52 -3864.485961c -4.56  -3.73
Writing to output.gpw (mode='')

iter: 810 18:07:43 -3864.485970c -4.69  -3.74
iter: 811 18:17:44 -3864.485965c -4.77  -3.71
iter: 812 18:27:45 -3864.486107c -2.83  -3.69
iter: 813 18:37:41 -3864.485941c -3.87  -3.81
iter: 814 18:47:55 -3864.485817c -3.42  -3.84
Writing to output.gpw (mode='')

iter: 815 18:58:22 -3864.485968c -3.60  -4.26c
iter: 816 19:08:20 -3864.486019c -3.90  -4.12c
iter: 817 19:18:21 -3864.485880c -3.95  -3.99
iter: 818 19:28:08 -3864.485914c -4.61  -4.27c
iter: 819 19:38:07 -3864.485930c -4.73  -4.23c
Writing to output.gpw (mode='')

iter: 820 19:48:23 -3864.485972c -4.07  -4.21c
iter: 821 19:58:21 -3864.485957c -4.69  -4.18c
iter: 822 20:08:18 -3864.486062c -3.58  -4.23c
iter: 823 20:18:31 -3864.486110c -4.20  -4.03c
iter: 824 20:28:43 -3864.486165c -4.06  -3.94
Writing to output.gpw (mode='')

iter: 825 20:38:41 -3864.486140c -4.45  -3.85
iter: 826 20:48:41 -3864.486071c -4.60  -3.82
iter: 827 20:58:43 -3864.486094c -4.84  -3.85
iter: 828 21:08:58 -3864.486048c -3.82  -3.84
iter: 829 21:18:59 -3864.486055c -4.24  -4.02c
Writing to output.gpw (mode='')

iter: 830 21:28:58 -3864.486208c -3.37  -4.12c
iter: 831 21:39:04 -3864.486167c -4.54  -4.05c
iter: 832 21:49:03 -3864.486122c -4.17  -4.06c
iter: 833 21:59:08 -3864.486166c -4.70  -4.29c
iter: 834 22:09:01 -3864.486206c -3.68  -4.22c
Writing to output.gpw (mode='')

iter: 835 22:19:03 -3864.486255c -4.09  -4.21c
iter: 836 22:29:06 -3864.486186c -4.80  -4.08c
iter: 837 22:38:52 -3864.486184c -4.17  -4.20c
iter: 838 22:48:59 -3864.486318c -3.48  -4.41c
iter: 839 22:59:00 -3864.486290c -4.43  -4.00
Writing to output.gpw (mode='')

iter: 840 23:09:23 -3864.486282c -4.74  -3.98
iter: 841 23:19:39 -3864.486244c -4.19  -3.98
iter: 842 23:29:52 -3864.486311c -4.64  -4.16c
iter: 843 23:40:09 -3864.486308c -3.71  -4.06c
iter: 844 23:50:19 -3864.486485c -3.45  -4.17c
Writing to output.gpw (mode='')

iter: 845 00:00:43 -3864.486631c -3.52  -3.93
iter: 846 00:11:00 -3864.486493c -4.49  -3.75
iter: 847 00:21:05 -3864.486537c -2.99  -3.73
iter: 848 00:31:20 -3864.486576c -3.84  -3.91
iter: 849 00:41:28 -3864.486352c -4.53  -3.82
Writing to output.gpw (mode='')

iter: 850 00:51:46 -3864.486328c -4.49  -3.95
iter: 851 01:01:43 -3864.486333c -4.18  -4.02c
iter: 852 01:11:56 -3864.486406c -4.57  -4.17c
iter: 853 01:22:16 -3864.486391c -4.30  -4.10c
iter: 854 01:32:07 -3864.486649c -3.15  -4.19c
Writing to output.gpw (mode='')

iter: 855 01:42:10 -3864.486417c -4.45  -3.81
iter: 856 01:52:03 -3864.486467c -4.84  -3.92
iter: 857 02:02:02 -3864.486480c -4.85  -3.91
iter: 858 02:11:58 -3864.486969c -3.29  -3.91
iter: 859 02:21:59 -3864.486278c -3.88  -3.51
Writing to output.gpw (mode='')

iter: 860 02:32:05 -3864.486385c -4.57  -3.68
iter: 861 02:42:08 -3864.486326c -3.99  -3.70
iter: 862 02:52:08 -3864.486362c -4.09  -3.79
iter: 863 03:02:02 -3864.486411c -3.59  -3.87
iter: 864 03:11:51 -3864.486854c -3.77  -4.13c
Writing to output.gpw (mode='')

iter: 865 03:21:57 -3864.486845c -4.23  -3.76
iter: 866 03:32:15 -3864.486534c -4.71  -3.71
iter: 867 03:42:31 -3864.486643c -4.97  -3.80
iter: 868 03:52:34 -3864.488157c -2.58  -3.78
iter: 869 04:02:35 -3864.486159c -3.62  -3.29
Writing to output.gpw (mode='')

iter: 870 04:12:41 -3864.486434c -4.19  -3.40
iter: 871 04:22:33 -3864.486488c -4.32  -3.42
iter: 872 04:32:35 -3864.486073c -3.03  -3.44
iter: 873 04:42:45 -3864.487635c -2.24  -3.70
iter: 874 04:52:37 -3864.487561c -3.24  -3.60
Writing to output.gpw (mode='')

iter: 875 05:02:41 -3864.486480c -4.12  -3.49
iter: 876 05:12:56 -3864.486639c -4.77  -3.66
iter: 877 05:23:31 -3864.487310c -3.65  -3.66
iter: 878 05:33:37 -3864.489038c -2.65  -3.51
iter: 879 05:43:39 -3864.487503c -4.31  -3.26
Writing to output.gpw (mode='')

iter: 880 05:53:47 -3864.487049c -4.40  -3.28
iter: 881 06:03:57 -3864.487239c -4.64  -3.30
iter: 882 06:13:55 -3864.488603c -3.18  -3.30
iter: 883 06:24:20 -3864.485778c -2.94  -3.18
iter: 884 06:34:48 -3864.486505c -2.20  -3.43
Writing to output.gpw (mode='')

iter: 885 06:45:08 -3864.487721c -2.61  -4.14c
iter: 886 06:55:25 -3864.487695c -3.29  -3.68
iter: 887 07:05:40 -3864.486942c -4.43  -3.56
iter: 888 07:15:57 -3864.487067c -4.63  -3.64
iter: 889 07:26:24 -3864.488708c -2.82  -3.61
Writing to output.gpw (mode='')

iter: 890 07:36:51 -3864.486018c -3.19  -3.32
iter: 891 07:47:10 -3864.486189c -3.57  -3.60
iter: 892 07:57:27 -3864.486502c -4.15  -3.70
iter: 893 08:07:49 -3864.486508c -3.37  -3.75
iter: 894 08:17:56 -3864.487587c -2.54  -4.04c
Writing to output.gpw (mode='')

iter: 895 08:28:06 -3864.494555c -1.81  -3.68
iter: 896 08:38:26 -3864.496067c -2.41  -3.01
iter: 897 08:48:31 -3864.485710c -3.03  -2.91
iter: 898 08:58:18 -3864.483707c -2.60  -3.02
iter: 899 09:08:21 -3864.484201c -2.65  -3.13
Writing to output.gpw (mode='')

iter: 900 09:18:41 -3864.486596c -4.47  -3.24
iter: 901 09:28:36 -3864.490028c -3.23  -3.24
iter: 902 09:39:04 -3864.486061c -3.63  -3.12
iter: 903 09:49:20 -3864.485029c -2.65  -3.21
iter: 904 09:59:20 -3864.514338c -1.18  -3.40
Writing to output.gpw (mode='')

iter: 905 10:09:26 -3864.484692c -2.62  -2.68
iter: 906 10:19:33 -3864.476131c -1.87  -2.76
iter: 907 10:29:44 -3864.480110c -2.42  -2.92
iter: 908 10:39:56 -3864.481237c -2.06  -2.98
iter: 909 10:49:55 -3864.487484c -4.00  -3.21
Writing to output.gpw (mode='')

iter: 910 11:00:15 -3864.515679c -1.52  -3.12
iter: 911 11:10:26 -3864.505996c -2.90  -2.62
iter: 912 11:20:21 -3864.518034c -2.37  -2.62
iter: 913 11:30:11 -3864.511068c -3.04  -2.58
iter: 914 11:40:29 -3864.481527c -2.39  -2.57
Writing to output.gpw (mode='')

iter: 915 11:50:29 -3864.550899c -0.60  -2.65
iter: 916 12:00:23 -3864.523200c -2.20  -2.56
iter: 917 12:10:37 -3864.488176c -2.38  -2.55
iter: 918 12:20:52 -3864.490416c -2.75  -2.61
iter: 919 12:30:50 -3864.492288c -2.94  -2.63
Writing to output.gpw (mode='')

iter: 920 12:40:54 -3864.477407c -1.14  -2.64
iter: 921 12:50:59 -3864.541677c -0.91  -3.07
iter: 922 13:01:10 -3864.510161c -2.30  -2.69
iter: 923 13:11:30 -3864.481383c -2.41  -2.70
iter: 924 13:21:45 -3864.475979c -2.05  -2.81
Writing to output.gpw (mode='')

iter: 925 13:31:56 -3864.482136c -2.84  -2.94
iter: 926 13:42:10 -3864.479814c -2.07  -2.98
iter: 927 13:52:31 -3864.501169c -1.15  -3.16
iter: 928 14:03:00 -3864.497235c -2.33  -3.04
iter: 929 14:13:06 -3864.490614c -3.32  -2.99
Writing to output.gpw (mode='')

iter: 930 14:23:17 -3864.485354c -2.86  -3.04
iter: 931 14:33:13 -3864.484854c -2.27  -3.17
iter: 932 14:43:23 -3864.485939c -2.72  -3.52
iter: 933 14:53:27 -3864.486611c -3.42  -3.81
iter: 934 15:03:46 -3864.486868c -3.63  -4.01c
Writing to output.gpw (mode='')

iter: 935 15:14:01 -3864.487308c -3.18  -4.19c
iter: 936 15:24:21 -3864.487827c -3.10  -3.97
iter: 937 15:34:31 -3864.488260c -3.22  -3.70
iter: 938 15:44:39 -3864.487883c -4.01  -3.54
iter: 939 15:54:56 -3864.487106c -4.25  -3.51
Writing to output.gpw (mode='')

iter: 940 16:05:14 -3864.486936c -4.00  -3.62
iter: 941 16:15:24 -3864.487053c -4.64  -3.70
iter: 942 16:25:56 -3864.486965c -3.35  -3.72
iter: 943 16:35:59 -3864.487200c -3.13  -4.09c
iter: 944 16:46:05 -3864.487254c -3.85  -4.26c
Writing to output.gpw (mode='')

iter: 945 16:56:01 -3864.487286c -4.14  -4.12c
iter: 946 17:06:17 -3864.487411c -3.85  -4.02c
iter: 947 17:16:29 -3864.487478c -3.97  -3.83
iter: 948 17:26:40 -3864.487814c -3.49  -3.74
iter: 949 17:36:48 -3864.487434c -4.81  -3.57
Writing to output.gpw (mode='')

iter: 950 17:47:09 -3864.487122c -4.16  -3.60
iter: 951 17:57:12 -3864.487064c -3.81  -3.69
iter: 952 18:07:13 -3864.487309c -5.18  -3.82
iter: 953 18:17:30 -3864.487444c -2.98  -3.76
iter: 954 18:27:43 -3864.487331c -4.37  -3.83
Writing to output.gpw (mode='')

iter: 955 18:37:45 -3864.487252c -4.70  -3.86
iter: 956 18:47:50 -3864.487179c -3.81  -3.90
iter: 957 18:58:00 -3864.487230c -3.76  -4.19c
iter: 958 19:07:56 -3864.487262c -4.26  -4.41c
iter: 959 19:18:00 -3864.487279c -4.56  -4.36c
Writing to output.gpw (mode='')

iter: 960 19:28:03 -3864.487294c -4.70  -4.28c
iter: 961 19:38:01 -3864.487307c -4.75  -4.22c
iter: 962 19:48:00 -3864.487376c -4.20  -4.17c
iter: 963 19:57:58 -3864.487266c -4.88  -4.00c
iter: 964 20:08:04 -3864.487250c -4.50  -4.15c
Writing to output.gpw (mode='')

iter: 965 20:17:56 -3864.487267c -4.23  -4.28c
iter: 966 20:27:56 -3864.487282c -4.94  -4.46c
iter: 967 20:38:10 -3864.487291c -5.08  -4.49c
iter: 968 20:48:13 -3864.487297c -5.23  -4.54c
iter: 969 20:58:25 -3864.487302c -5.10  -4.55c
Writing to output.gpw (mode='')

iter: 970 21:08:20 -3864.487312c -4.93  -4.63c
iter: 971 21:18:06 -3864.487317c -5.07  -4.62c
iter: 972 21:28:03 -3864.487319c -5.25  -4.56c
iter: 973 21:37:55 -3864.487318c -5.10  -4.54c
iter: 974 21:48:01 -3864.487323c -5.03  -4.65c
Writing to output.gpw (mode='')

iter: 975 21:58:08 -3864.487329c -5.35  -4.70c
iter: 976 22:08:24 -3864.487333c -5.07  -4.67c
iter: 977 22:18:40 -3864.487359c -4.25  -4.71c
iter: 978 22:28:55 -3864.487382c -4.54  -4.33c
iter: 979 22:38:57 -3864.487352c -5.21  -4.17c
Writing to output.gpw (mode='')

iter: 980 22:49:06 -3864.487379c -5.02  -4.25c
iter: 981 22:59:14 -3864.487405c -4.58  -4.17c
iter: 982 23:09:17 -3864.487421c -4.67  -4.06c
iter: 983 23:19:35 -3864.487352c -4.16  -3.99
iter: 984 23:29:42 -3864.487369c -4.36  -4.45c
Writing to output.gpw (mode='')

iter: 985 23:39:42 -3864.487381c -4.79  -4.68c
iter: 986 23:49:57 -3864.487386c -5.38  -4.69c
iter: 987 00:00:09 -3864.487389c -5.50  -4.70c
iter: 988 00:10:20 -3864.487394c -5.04  -4.70c
iter: 989 00:20:29 -3864.487398c -5.33  -4.73c
Writing to output.gpw (mode='')

iter: 990 00:30:49 -3864.487405c -4.85  -4.71c
iter: 991 00:40:54 -3864.487417c -4.86  -4.64c
iter: 992 00:51:01 -3864.487416c -4.85  -4.50c
iter: 993 01:01:16 -3864.487419c -5.34  -4.56c
iter: 994 01:11:13 -3864.487430c -4.68  -4.56c
Writing to output.gpw (mode='')

iter: 995 01:21:22 -3864.487525c -3.74  -4.47c
iter: 996 01:31:36 -3864.487456c -5.10  -3.92
iter: 997 01:41:48 -3864.487434c -4.80  -3.96
iter: 998 01:52:05 -3864.487497c -4.62  -4.02c
iter: 999 02:02:18 -3864.487475c -4.72  -3.94

Did not converge!

Here are some tips:

1) Make sure the geometry and spin-state is physically sound.
2) Use less aggressive density mixing.
3) Solve the eigenvalue problem more accurately at each scf-step.
4) Use a smoother distribution function for the occupation numbers.
5) Try adding more empty states.
6) Use enough k-points.
7) Don't let your structure optimization algorithm take too large steps.
8) Solve the Poisson equation more accurately.
9) Better initial guess for the wave functions.

See details here:

    https://wiki.fysik.dtu.dk/gpaw/documentation/convergence.html


