
  ___ ___ ___ _ _ _  
 |   |   |_  | | | | 
 | | | | | . | | | | 
 |__ |  _|___|_____|  22.8.0
 |___|_|             

User:   vazumah@c07.hercules
Date:   Tue Feb 14 09:52:13 2023
Arch:   x86_64
Pid:    27840
CWD:    /home/vazumah/Python_projects/LiNRR/autocad_start/slab_experiments/free_slabs/Ba/bcc100/substrate
Python: 3.10.8
gpaw:   /home/vazumah/.conda/envs/GPAW/lib/python3.10/site-packages/gpaw
_gpaw:  /home/vazumah/.conda/envs/GPAW/lib/python3.10/site-packages/
        _gpaw.cpython-310-x86_64-linux-gnu.so
ase:    /home/vazumah/.conda/envs/GPAW/lib/python3.10/site-packages/ase (version 3.22.1)
numpy:  /home/vazumah/.conda/envs/GPAW/lib/python3.10/site-packages/numpy (version 1.24.1)
scipy:  /home/vazumah/.conda/envs/GPAW/lib/python3.10/site-packages/scipy (version 1.10.0)
libxc:  5.2.3
units:  Angstrom and eV
cores: 24
OpenMP: True
OMP_NUM_THREADS: 1

Reading from output.gpw
Reading input parameters:
  h: 0.16
  kpts: {size: [4, 4, 1]}
  maxiter: 999
  occupations: {name: fermi-dirac,
                width: 0.05}
  poissonsolver: {dipolelayer: xy}
  xc: BEEF-vdW

Initialize ...

species:
  Ba:
    name: Barium
    id: 3c0c69fceb001740075f2c7491402c79
    Z: 56.0
    valence: 10
    core: 46
    charge: 0.0
    file: /home/vazumah/.conda/envs/GPAW/share/gpaw/Ba.PBE.gz
    compensation charges: {type: gauss,
                           rc: 0.37,
                           lmax: 2}
    cutoffs: {filter: 2.06,
              core: 2.33}
    valence states:
      #              energy  rcut
      - 5s(2.00)   -33.644   1.164
      - 6s(2.00)    -3.229   1.164
      - 5p(6.00)   -18.744   1.164
      -  p           0.000   1.164
      -  d           0.000   1.164
      -  d          27.211   1.164
  
    # Using partial waves for Ba as LCAO basis

Reference energy: -7966002.330397  # eV

Spin-paired calculation

Convergence criteria:
 Maximum [total energy] change in last 3 cyles: 0.0005 eV / electron
 Maximum integral of absolute [dens]ity change: 0.0001 electrons / valence electron
 Maximum integral of absolute [eigenst]ate change: 4e-08 eV^2 / valence electron
 Maximum number of scf [iter]ations: 999
 (Square brackets indicate name in SCF output, whereas a 'c' in
 the SCF output indicates the quantity has converged.)

Symmetries present (total): 8

  ( 1  0  0)  ( 1  0  0)  ( 0  1  0)  ( 0  1  0)  ( 0 -1  0)  ( 0 -1  0)
  ( 0  1  0)  ( 0 -1  0)  ( 1  0  0)  (-1  0  0)  ( 1  0  0)  (-1  0  0)
  ( 0  0  1)  ( 0  0  1)  ( 0  0  1)  ( 0  0  1)  ( 0  0  1)  ( 0  0  1)

  (-1  0  0)  (-1  0  0)
  ( 0  1  0)  ( 0 -1  0)
  ( 0  0  1)  ( 0  0  1)

16 k-points: 4 x 4 x 1 Monkhorst-Pack grid
3 k-points in the irreducible part of the Brillouin zone
       k-points in crystal coordinates                weights
   0:     0.12500000    0.12500000    0.00000000          4/16
   1:     0.37500000    0.12500000    0.00000000          8/16
   2:     0.37500000    0.37500000    0.00000000          4/16

Wave functions: Uniform real-space grid
  Kinetic energy operator: 6*3+1=19 point O(h^6) finite-difference Laplacian
  ScaLapack parameters: grid=1x1, blocksize=None
  Wavefunction extrapolation:
    Improved wavefunction reuse through dual PAW basis 

Occupation numbers: Fermi-Dirac:
  width: 0.0500  # eV
 

Eigensolver
   Davidson(niter=2) 

Densities:
  Coarse grid: 96*96*172 grid
  Fine grid: 192*192*344 grid
  Total Charge: 0.000000 

Density mixing:
  Method: separate
  Backend: pulay
  Linear mixing parameter: 0.05
  old densities: 5
  Damping of long wavelength oscillations: 50 

Hamiltonian:
  XC and Coulomb potentials evaluated on a 192*192*344 grid
  Using the BEEF-vdW Exchange-Correlation functional
  Interpolation: tri-quintic (5. degree polynomial)
  Poisson solver: FastPoissonSolver using
    Stencil: 6*3+1=19 point O(h^6) finite-difference Laplacian
    FFT axes: [0, 1]
    FST axes: [2]

Dipole correction along z-axis 

XC parameters: BEEF-vdW with 2 nearest neighbor stencil

Memory estimate:
  Process memory now: 228.25 MiB
  Calculator: 1217.33 MiB
    Density: 87.64 MiB
      Arrays: 39.06 MiB
      Localized functions: 33.64 MiB
      Mixer: 14.94 MiB
    Hamiltonian: 28.08 MiB
      Arrays: 25.54 MiB
      XC: 0.00 MiB
      Poisson: 0.00 MiB
      vbar: 2.54 MiB
    Wavefunctions: 1101.61 MiB
      Arrays psit_nG: 537.89 MiB
      Eigensolver: 557.78 MiB
      Projections: 0.22 MiB
      Projectors: 5.71 MiB

Total number of cores used: 24
Parallelization over k-points: 3
Domain decomposition: 2 x 2 x 2

Number of atoms: 36
Number of atomic orbitals: 180
Number of bands in calculation: 180
Number of valence electrons: 360
Bands to converge: occupied

... initialized

Initializing position-dependent things.

Creating initial wave functions:
  180 bands from LCAO basis set

          .------------------------------------.  
         /|                                    |  
        / |                                    |  
       /  |                                    |  
      /   |                                    |  
     /    |                                    |  
    /     |                                    |  
   /      |                                    |  
  /       |                                    |  
 *        |                                    |  
 |        |                                    |  
 |        |                                    |  
 |        |                                    |  
 |        |                                    |  
 |        |                                    |  
 |     Ba |        Ba           Ba             |  
 |        |                                    |  
 |        |    Ba          Ba          Ba      |  
 |  Ba    |     Ba           Ba                |  
 |        |                                    |  
 |        | Ba          Ba          Ba         |  
 Ba       |  Ba           Ba                   |  
 |     Ba |        Ba           Ba             |  
 |       Ba    Ba    Ba    Ba    Ba    Ba      |  
 |        |                                    |  
 |  Ba    |     Ba           Ba                |  
 |        | Ba          Ba          Ba         |  
 |        |                                    |  
 Ba       |  Ba           Ba                   |  
 |       Ba          Ba          Ba            |  
 |        |                                    |  
 |        |                                    |  
 |        |                                    |  
 |        |                                    |  
 |        .------------------------------------.  
 |       /                                    /   
 |      /                                    /    
 |     /                                    /     
 |    /                                    /      
 |   /                                    /       
 |  /                                    /        
 | /                                    /         
 |/                                    /          
 *------------------------------------*           

Positions:
   0 Ba     2.510000    2.510000   10.000000    ( 0.0000,  0.0000,  0.0000)
   1 Ba     7.530000    2.510000   10.000000    ( 0.0000,  0.0000,  0.0000)
   2 Ba    12.550000    2.510000   10.000000    ( 0.0000,  0.0000,  0.0000)
   3 Ba     2.510000    7.530000   10.000000    ( 0.0000,  0.0000,  0.0000)
   4 Ba     7.530000    7.530000   10.000000    ( 0.0000,  0.0000,  0.0000)
   5 Ba    12.550000    7.530000   10.000000    ( 0.0000,  0.0000,  0.0000)
   6 Ba     2.510000   12.550000   10.000000    ( 0.0000,  0.0000,  0.0000)
   7 Ba     7.530000   12.550000   10.000000    ( 0.0000,  0.0000,  0.0000)
   8 Ba    12.550000   12.550000   10.000000    ( 0.0000,  0.0000,  0.0000)
   9 Ba     0.000000    0.000000   12.510000    ( 0.0000,  0.0000,  0.0000)
  10 Ba     5.020000    0.000000   12.510000    ( 0.0000,  0.0000,  0.0000)
  11 Ba    10.040000    0.000000   12.510000    ( 0.0000,  0.0000,  0.0000)
  12 Ba     0.000000    5.020000   12.510000    ( 0.0000,  0.0000,  0.0000)
  13 Ba     5.020000    5.020000   12.510000    ( 0.0000,  0.0000,  0.0000)
  14 Ba    10.040000    5.020000   12.510000    ( 0.0000,  0.0000,  0.0000)
  15 Ba     0.000000   10.040000   12.510000    ( 0.0000,  0.0000,  0.0000)
  16 Ba     5.020000   10.040000   12.510000    ( 0.0000,  0.0000,  0.0000)
  17 Ba    10.040000   10.040000   12.510000    ( 0.0000,  0.0000,  0.0000)
  18 Ba     2.510000    2.510000   15.020000    ( 0.0000,  0.0000,  0.0000)
  19 Ba     7.530000    2.510000   15.020000    ( 0.0000,  0.0000,  0.0000)
  20 Ba    12.550000    2.510000   15.020000    ( 0.0000,  0.0000,  0.0000)
  21 Ba     2.510000    7.530000   15.020000    ( 0.0000,  0.0000,  0.0000)
  22 Ba     7.530000    7.530000   15.020000    ( 0.0000,  0.0000,  0.0000)
  23 Ba    12.550000    7.530000   15.020000    ( 0.0000,  0.0000,  0.0000)
  24 Ba     2.510000   12.550000   15.020000    ( 0.0000,  0.0000,  0.0000)
  25 Ba     7.530000   12.550000   15.020000    ( 0.0000,  0.0000,  0.0000)
  26 Ba    12.550000   12.550000   15.020000    ( 0.0000,  0.0000,  0.0000)
  27 Ba     0.000000    0.000000   17.530000    ( 0.0000,  0.0000,  0.0000)
  28 Ba     5.020000    0.000000   17.530000    ( 0.0000,  0.0000,  0.0000)
  29 Ba    10.040000    0.000000   17.530000    ( 0.0000,  0.0000,  0.0000)
  30 Ba     0.000000    5.020000   17.530000    ( 0.0000,  0.0000,  0.0000)
  31 Ba     5.020000    5.020000   17.530000    ( 0.0000,  0.0000,  0.0000)
  32 Ba    10.040000    5.020000   17.530000    ( 0.0000,  0.0000,  0.0000)
  33 Ba     0.000000   10.040000   17.530000    ( 0.0000,  0.0000,  0.0000)
  34 Ba     5.020000   10.040000   17.530000    ( 0.0000,  0.0000,  0.0000)
  35 Ba    10.040000   10.040000   17.530000    ( 0.0000,  0.0000,  0.0000)

Unit cell:
           periodic     x           y           z      points  spacing
  1. axis:    yes   15.060000    0.000000    0.000000    96     0.1569
  2. axis:    yes    0.000000   15.060000    0.000000    96     0.1569
  3. axis:    no     0.000000    0.000000   27.530000   172     0.1601

  Lengths:  15.060000  15.060000  27.530000
  Angles:   90.000000  90.000000  90.000000

Effective grid spacing dv^(1/3) = 0.1579

     iter     time        total  log10-change:
                         energy  eigst   dens
iter:   1 10:05:45 -6756.935645  +1.49
iter:   2 10:17:24 -6768.152870  +1.07  -1.32
iter:   3 10:29:07 -6778.252278  +1.10  -1.39
iter:   4 10:40:48 -6785.194184  +0.96  -1.60
Writing to output.gpw (mode='')

iter:   5 10:52:41 -6788.552089  +0.53  -1.77
iter:   6 11:04:47 -6791.327654  +0.43  -1.77
iter:   7 11:16:55 -6792.775642  +0.23  -1.77
iter:   8 11:28:57 -6793.925624  -0.05  -1.86
iter:   9 11:40:45 -6795.228761  -0.10  -1.99
Writing to output.gpw (mode='')

iter:  10 11:52:29 -6795.596179  -0.24  -1.93
iter:  11 12:04:27 -6795.964869  -0.26  -1.96
iter:  12 12:16:21 -6796.262365  -0.27  -2.02
iter:  13 12:28:09 -6797.006289  +0.11  -2.13
iter:  14 12:39:54 -6796.927716  -0.58  -2.10
Writing to output.gpw (mode='')

iter:  15 12:51:59 -6797.086836c -0.76  -2.25
iter:  16 13:03:48 -6798.413188  +0.06  -2.26
iter:  17 13:15:45 -6798.528961  -0.45  -1.79
iter:  18 13:27:37 -6798.572582c -0.58  -1.76
iter:  19 13:39:31 -6797.380974  -0.27  -1.74
Writing to output.gpw (mode='')

iter:  20 13:51:29 -6797.544884  -0.58  -2.12
iter:  21 14:03:29 -6797.693996  -0.67  -2.19
iter:  22 14:15:20 -6797.823488  -0.82  -2.26
iter:  23 14:27:02 -6797.956088  -1.15  -2.32
iter:  24 14:38:53 -6797.992101c -1.44  -2.39
Writing to output.gpw (mode='')

iter:  25 14:50:58 -6798.173096  -0.87  -2.40
iter:  26 15:02:52 -6798.133852  -1.43  -2.21
iter:  27 15:14:33 -6798.130044c -0.78  -2.26
iter:  28 15:26:18 -6798.199262c -0.98  -2.61
iter:  29 15:38:03 -6798.223499c -1.47  -2.73
Writing to output.gpw (mode='')

iter:  30 15:49:50 -6798.252892c -1.35  -2.76
iter:  31 16:02:02 -6798.278118c -1.56  -2.76
iter:  32 16:14:00 -6798.308646c -1.55  -2.73
iter:  33 16:25:46 -6798.331167c -1.54  -2.71
iter:  34 16:37:36 -6798.374551c -1.48  -2.71
Writing to output.gpw (mode='')

iter:  35 16:49:44 -6798.378482c -1.79  -2.61
iter:  36 17:01:42 -6798.393536c -1.94  -2.63
iter:  37 17:13:36 -6798.435739c -1.47  -2.59
iter:  38 17:25:36 -6798.428861c -1.82  -2.50
iter:  39 17:37:29 -6798.452786c -1.90  -2.56
Writing to output.gpw (mode='')

iter:  40 17:49:32 -6798.448098c -1.63  -2.51
iter:  41 18:01:40 -6798.454671c -1.91  -2.53
iter:  42 18:13:31 -6798.465365c -2.10  -2.53
iter:  43 18:25:30 -6798.472368c -2.13  -2.59
iter:  44 18:37:22 -6798.480655c -2.19  -2.61
Writing to output.gpw (mode='')

iter:  45 18:49:09 -6798.489257c -2.12  -2.65
iter:  46 19:01:02 -6798.498617c -1.80  -2.69
iter:  47 19:12:53 -6798.502206c -2.00  -2.78
iter:  48 19:24:29 -6798.508891c -1.67  -2.81
iter:  49 19:36:14 -6798.517021c -2.15  -2.93
Writing to output.gpw (mode='')

iter:  50 19:47:57 -6798.524066c -2.11  -3.08
iter:  51 19:59:48 -6798.529028c -2.09  -3.12
iter:  52 20:11:43 -6798.537100c -1.83  -3.20
iter:  53 20:23:44 -6798.542055c -2.27  -3.24
iter:  54 20:35:38 -6798.546007c -2.42  -3.29
Writing to output.gpw (mode='')

iter:  55 20:47:38 -6798.552212c -1.99  -3.29
iter:  56 20:59:38 -6798.556387c -2.28  -3.31
iter:  57 21:11:31 -6798.558854c -2.14  -3.27
iter:  58 21:23:21 -6798.562340c -2.34  -3.43
iter:  59 21:35:28 -6798.565423c -2.50  -3.43
Writing to output.gpw (mode='')

iter:  60 21:47:28 -6798.569327c -2.34  -3.50
iter:  61 21:59:26 -6798.572545c -2.40  -3.44
iter:  62 22:11:24 -6798.574794c -2.50  -3.29
iter:  63 22:23:17 -6798.577474c -2.39  -3.45
iter:  64 22:35:14 -6798.579570c -2.62  -3.70
Writing to output.gpw (mode='')

iter:  65 22:47:04 -6798.582272c -2.42  -3.55
iter:  66 22:59:05 -6798.584432c -2.61  -3.46
iter:  67 23:11:04 -6798.586613c -2.66  -3.50
iter:  68 23:22:43 -6798.588319c -2.89  -3.51
iter:  69 23:34:31 -6798.589927c -2.81  -3.46
Writing to output.gpw (mode='')

iter:  70 23:46:27 -6798.591761c -2.60  -3.40
iter:  71 23:57:59 -6798.593067c -2.95  -3.37
iter:  72 00:09:31 -6798.594613c -2.74  -3.37
iter:  73 00:21:19 -6798.595941c -3.01  -3.42
iter:  74 00:33:04 -6798.597103c -2.92  -3.52
Writing to output.gpw (mode='')

iter:  75 00:45:01 -6798.598264c -3.08  -3.51
iter:  76 00:56:41 -6798.599435c -2.95  -3.56
iter:  77 01:08:36 -6798.602184c -2.37  -3.52
iter:  78 01:20:25 -6798.603572c -2.81  -3.44
iter:  79 01:32:23 -6798.604948c -2.74  -3.39
Writing to output.gpw (mode='')

iter:  80 01:44:21 -6798.605935c -3.14  -3.35
iter:  81 01:56:09 -6798.607688c -2.55  -3.37
iter:  82 02:07:49 -6798.609513c -2.70  -3.37
iter:  83 02:19:26 -6798.610201c -2.88  -3.27
iter:  84 02:31:13 -6798.611067c -3.10  -3.27
Writing to output.gpw (mode='')

iter:  85 02:42:49 -6798.611970c -2.91  -3.28
iter:  86 02:54:35 -6798.613425c -2.85  -3.32
iter:  87 03:06:27 -6798.614251c -2.55  -3.21
iter:  88 03:18:16 -6798.615134c -2.96  -3.33
iter:  89 03:30:04 -6798.615972c -3.15  -3.30
Writing to output.gpw (mode='')

iter:  90 03:41:54 -6798.616816c -3.06  -3.35
iter:  91 03:53:39 -6798.617837c -2.98  -3.34
iter:  92 04:05:20 -6798.618253c -3.28  -3.32
iter:  93 04:17:18 -6798.620262c -2.77  -3.30
iter:  94 04:29:24 -6798.620617c -3.08  -3.22
Writing to output.gpw (mode='')

iter:  95 04:41:08 -6798.622108c -3.02  -3.19
iter:  96 04:52:54 -6798.622415c -2.97  -3.17
iter:  97 05:04:48 -6798.623370c -2.90  -3.14
iter:  98 05:16:38 -6798.629962c -2.31  -3.10
iter:  99 05:28:29 -6798.624798c -3.17  -2.95
Writing to output.gpw (mode='')

iter: 100 05:40:25 -6798.629446c -2.87  -2.98
iter: 101 05:52:24 -6798.622478c -2.75  -2.94
iter: 102 06:04:06 -6798.625219c -3.26  -3.03
iter: 103 06:15:55 -6798.624231c -1.85  -3.01
iter: 104 06:27:53 -6798.626486c -2.44  -3.05
Writing to output.gpw (mode='')

iter: 105 06:39:57 -6798.625446c -2.92  -3.06
iter: 106 06:51:49 -6798.627353c -2.42  -3.23
iter: 107 07:03:35 -6798.627083c -2.96  -3.27
iter: 108 07:15:30 -6798.626983c -3.13  -3.27
iter: 109 07:27:08 -6798.627372c -3.31  -3.27
Writing to output.gpw (mode='')

iter: 110 07:39:14 -6798.628728c -2.43  -3.26
iter: 111 07:51:06 -6798.630801c -2.52  -3.25
iter: 112 08:02:52 -6798.630049c -2.65  -3.22
iter: 113 08:14:47 -6798.630887c -3.12  -3.19
iter: 114 08:26:35 -6798.630719c -3.11  -3.18
Writing to output.gpw (mode='')

iter: 115 08:38:29 -6798.637647c -2.19  -3.18
iter: 116 08:50:21 -6798.648005c -1.96  -2.97
iter: 117 09:02:03 -6798.630558c -2.80  -2.83
iter: 118 09:13:43 -6798.629014c -2.64  -2.95
iter: 119 09:25:11 -6798.628749c -1.91  -3.02
Writing to output.gpw (mode='')

iter: 120 09:36:52 -6798.630640c -2.46  -3.24
iter: 121 09:48:45 -6798.631883c -3.14  -3.28
iter: 122 10:00:28 -6798.632219c -3.55  -3.44
iter: 123 10:12:24 -6798.632253c -2.86  -3.53
iter: 124 10:24:27 -6798.632880c -2.96  -3.73
Writing to output.gpw (mode='')

iter: 125 10:36:40 -6798.633138c -3.38  -3.73
iter: 126 10:48:41 -6798.633573c -3.25  -3.76
iter: 127 11:00:28 -6798.633805c -3.61  -3.74
iter: 128 11:12:24 -6798.634026c -3.67  -3.73
iter: 129 11:24:09 -6798.634211c -3.51  -3.70
Writing to output.gpw (mode='')

iter: 130 11:36:02 -6798.634433c -3.46  -3.82
iter: 131 11:47:58 -6798.634647c -3.67  -3.85
iter: 132 11:59:45 -6798.635549c -2.80  -3.85
iter: 133 12:11:46 -6798.635806c -3.39  -3.68
iter: 134 12:23:50 -6798.635821c -3.26  -3.64
Writing to output.gpw (mode='')

iter: 135 12:35:28 -6798.636861c -3.01  -3.75
iter: 136 12:47:14 -6798.636513c -3.40  -3.56
iter: 137 12:59:11 -6798.636717c -3.60  -3.65
iter: 138 13:11:03 -6798.637015c -3.47  -3.64
iter: 139 13:22:40 -6798.637766c -3.08  -3.64
Writing to output.gpw (mode='')

iter: 140 13:34:34 -6798.638853c -2.49  -3.54
iter: 141 13:46:19 -6798.639596c -3.20  -3.51
iter: 142 13:57:58 -6798.639645c -3.32  -3.45
iter: 143 14:09:43 -6798.640322c -3.34  -3.41
iter: 144 14:21:24 -6798.639773c -3.38  -3.38
Writing to output.gpw (mode='')

iter: 145 14:33:04 -6798.644298c -2.35  -3.41
iter: 146 14:44:29 -6798.645636c -2.89  -3.11
iter: 147 14:56:04 -6798.640753c -3.01  -3.07
iter: 148 15:07:29 -6798.642681c -3.44  -3.19
iter: 149 15:19:05 -6798.640894c -2.48  -3.17
Writing to output.gpw (mode='')

iter: 150 15:30:53 -6798.648731c -1.61  -3.35
iter: 151 15:42:38 -6798.644245c -2.86  -3.13
iter: 152 15:54:42 -6798.645352c -3.20  -3.22
iter: 153 16:06:34 -6798.645641c -3.25  -3.21
iter: 154 16:18:31 -6798.647488c -2.93  -3.20
Writing to output.gpw (mode='')

iter: 155 16:30:38 -6798.651879c -1.80  -3.15
iter: 156 16:42:26 -6798.647671c -2.74  -3.09
iter: 157 16:54:14 -6798.647641c -2.73  -3.18
iter: 158 17:06:02 -6798.648326c -3.19  -3.26
iter: 159 17:17:59 -6798.649005c -3.28  -3.29
Writing to output.gpw (mode='')

iter: 160 17:29:53 -6798.652700c -2.11  -3.32
iter: 161 17:41:51 -6798.651722c -2.91  -3.29
iter: 162 17:53:53 -6798.652866c -2.50  -3.39
iter: 163 18:05:44 -6798.653609c -3.24  -3.46
iter: 164 18:17:21 -6798.654601c -3.01  -3.50
Writing to output.gpw (mode='')

iter: 165 18:29:09 -6798.655891c -2.67  -3.61
iter: 166 18:40:58 -6798.656600c -2.97  -3.63
iter: 167 18:52:47 -6798.659087c -2.28  -3.74
iter: 168 19:04:38 -6798.659897c -3.01  -3.64
iter: 169 19:16:42 -6798.662452c -2.38  -3.60
Writing to output.gpw (mode='')

iter: 170 19:28:30 -6798.663118c -2.93  -3.41
iter: 171 19:40:14 -6798.664913c -2.31  -3.40
iter: 172 19:52:10 -6798.666235c -2.87  -3.62
iter: 173 20:03:58 -6798.667290c -2.87  -3.62
iter: 174 20:15:55 -6798.672155c -2.22  -3.58
Writing to output.gpw (mode='')

iter: 175 20:27:54 -6798.672846c -2.45  -3.39
iter: 176 20:39:47 -6798.674090c -2.91  -3.50
iter: 177 20:51:48 -6798.675972c -2.43  -3.51
iter: 178 21:03:36 -6798.678369c -2.46  -3.54
iter: 179 21:15:35 -6798.681297c -2.37  -3.45
Writing to output.gpw (mode='')

iter: 180 21:27:42 -6798.683187c -2.56  -3.52
iter: 181 21:39:47 -6798.685223c -2.56  -3.48
iter: 182 21:51:48 -6798.686900c -2.70  -3.40
iter: 183 22:03:50 -6798.689843c -2.48  -3.37
iter: 184 22:15:38 -6798.691871c -2.60  -3.28
Writing to output.gpw (mode='')

iter: 185 22:27:28 -6798.695544c -2.44  -3.25
iter: 186 22:39:30 -6798.697478c -2.32  -3.18
iter: 187 22:51:40 -6798.699319c -2.74  -3.24
iter: 188 23:03:41 -6798.703795c -2.36  -3.24
iter: 189 23:15:55 -6798.707615c -1.91  -3.21
Writing to output.gpw (mode='')

iter: 190 23:27:55 -6798.710879c -2.40  -3.22
iter: 191 23:39:40 -6798.713569c -2.66  -3.31
iter: 192 23:51:28 -6798.717298c -2.39  -3.41
iter: 193 00:03:24 -6798.719882c -2.66  -3.44
iter: 194 00:15:20 -6798.722796c -2.52  -3.48
Writing to output.gpw (mode='')

iter: 195 00:27:20 -6798.724909c -2.70  -3.50
iter: 196 00:39:00 -6798.727217c -2.60  -3.50
iter: 197 00:50:49 -6798.730571c -2.50  -3.49
iter: 198 01:02:44 -6798.734554c -2.20  -3.45
iter: 199 01:14:25 -6798.740001c -2.18  -3.43
Writing to output.gpw (mode='')

iter: 200 01:26:06 -6798.743770c -2.29  -3.40
iter: 201 01:38:01 -6798.748107c -2.28  -3.33
iter: 202 01:50:01 -6798.751620c -2.35  -3.37
iter: 203 02:02:04 -6798.754717c -2.43  -3.31
iter: 204 02:13:54 -6798.757578c -2.47  -3.27
Writing to output.gpw (mode='')

iter: 205 02:25:54 -6798.770238c -1.76  -3.24
iter: 206 02:37:51 -6798.773660c -2.18  -3.06
iter: 207 02:49:54 -6798.787641c -1.76  -3.04
iter: 208 03:01:43 -6798.786291c -2.36  -2.88
iter: 209 03:13:27 -6798.790538c -2.54  -2.92
Writing to output.gpw (mode='')

iter: 210 03:25:30 -6798.795635c -2.35  -2.90
iter: 211 03:37:34 -6798.805373c -1.58  -2.89
iter: 212 03:49:34 -6798.815556c -1.49  -3.00
iter: 213 04:01:41 -6798.823511c -1.96  -3.15
iter: 214 04:13:19 -6798.829465c -2.06  -3.22
Writing to output.gpw (mode='')

iter: 215 04:25:33 -6798.834345c -2.29  -3.20
iter: 216 04:37:18 -6798.839053c -2.34  -3.18
iter: 217 04:49:17 -6798.843256c -2.53  -3.14
iter: 218 05:01:07 -6798.847580c -2.41  -3.11
iter: 219 05:12:59 -6798.855119c -2.18  -3.07
Writing to output.gpw (mode='')

iter: 220 05:24:56 -6798.858420c -2.37  -3.02
iter: 221 05:36:45 -6798.862285c -2.39  -3.00
iter: 222 05:48:44 -6798.870636c -2.10  -2.97
iter: 223 06:00:41 -6798.873600c -2.47  -2.92
iter: 224 06:12:26 -6798.878664c -2.03  -2.91
Writing to output.gpw (mode='')

iter: 225 06:24:24 -6798.882116c -2.29  -2.91
iter: 226 06:36:25 -6798.892583c -1.98  -2.88
iter: 227 06:48:16 -6798.901322c -2.03  -2.82
iter: 228 07:00:14 -6798.898765c -1.69  -2.81
iter: 229 07:11:59 -6798.906069c -2.50  -2.87
Writing to output.gpw (mode='')

iter: 230 07:23:51 -6798.907977c -2.06  -2.80
iter: 231 07:35:38 -6798.912396c -1.92  -2.85
iter: 232 07:47:52 -6798.922161c -1.63  -2.99
iter: 233 07:59:35 -6798.927560c -2.03  -3.15
iter: 234 08:11:23 -6798.931722c -2.13  -3.14
Writing to output.gpw (mode='')

iter: 235 08:23:24 -6798.940717c -1.96  -3.11
iter: 236 08:35:13 -6798.940712c -1.93  -3.01
iter: 237 08:47:07 -6798.944802c -2.32  -3.13
iter: 238 08:59:21 -6798.982591c -1.10  -3.10
iter: 239 09:11:02 -6798.984135c -1.96  -2.73
Writing to output.gpw (mode='')

iter: 240 09:22:57 -6798.984712c -2.29  -2.69
iter: 241 09:34:26 -6799.003569c -1.95  -2.66
iter: 242 09:46:27 -6798.999399c -2.26  -2.60
iter: 243 09:58:26 -6799.020163c -1.92  -2.58
iter: 244 10:10:13 -6798.999104c -2.28  -2.53
Writing to output.gpw (mode='')

iter: 245 10:22:07 -6799.026737c -0.79  -2.55
iter: 246 10:33:54 -6798.990150c -1.78  -2.63
iter: 247 10:45:35 -6799.047738c -0.83  -2.76
iter: 248 10:57:24 -6799.080868c -1.29  -2.65
iter: 249 11:09:07 -6799.093976c -1.46  -2.56
Writing to output.gpw (mode='')

iter: 250 11:20:38 -6799.070442c -1.82  -2.50
iter: 251 11:32:18 -6799.009606c -1.96  -2.47
iter: 252 11:44:07 -6798.997487c -1.66  -2.58
iter: 253 11:55:51 -6799.039664c -2.27  -2.66
iter: 254 12:07:35 -6799.032652c -0.88  -2.60
Writing to output.gpw (mode='')

iter: 255 12:19:24 -6799.021294c -1.95  -2.77
iter: 256 12:31:27 -6799.026007c -1.92  -2.93
iter: 257 12:43:13 -6799.044013c -1.59  -3.01
iter: 258 12:55:04 -6799.037235c -2.32  -2.88
iter: 259 13:06:43 -6799.056117c -1.80  -2.90
Writing to output.gpw (mode='')

iter: 260 13:18:24 -6799.072162c -1.75  -2.76
iter: 261 13:29:57 -6799.070430c -2.14  -2.66
iter: 262 13:41:40 -6799.045571c -2.13  -2.65
iter: 263 13:53:27 -6799.043393c -1.56  -2.75
iter: 264 14:05:10 -6799.049826c -2.21  -2.87
Writing to output.gpw (mode='')

iter: 265 14:16:55 -6799.070529c -1.26  -2.89
iter: 266 14:28:38 -6799.065194c -2.09  -2.86
iter: 267 14:40:34 -6799.071044c -1.48  -2.91
iter: 268 14:52:23 -6799.075926c -2.07  -3.05
iter: 269 15:04:09 -6799.081194c -2.18  -3.01
Writing to output.gpw (mode='')

iter: 270 15:16:04 -6799.096622c -1.74  -2.97
iter: 271 15:28:08 -6799.095116c -2.32  -2.84
iter: 272 15:39:44 -6799.120046c -1.71  -2.82
iter: 273 15:51:42 -6799.126578c -1.78  -2.67
iter: 274 16:03:45 -6799.131381c -2.23  -2.64
Writing to output.gpw (mode='')

iter: 275 16:15:48 -6799.136354c -2.13  -2.62
iter: 276 16:27:51 -6799.109991c -1.79  -2.59
iter: 277 16:39:58 -6799.177585c -1.29  -2.69
iter: 278 16:51:50 -6799.169824c -1.71  -2.52
iter: 279 17:03:36 -6799.180645c -0.62  -2.50
Writing to output.gpw (mode='')

iter: 280 17:15:40 -6799.161225c -1.70  -2.72
iter: 281 17:27:31 -6799.166767c -1.83  -2.84
iter: 282 17:39:28 -6799.183538c -1.41  -2.88
iter: 283 17:51:20 -6799.192297c -1.89  -2.92
iter: 284 18:03:27 -6799.197209c -1.74  -2.91
Writing to output.gpw (mode='')

iter: 285 18:15:36 -6799.206011c -1.96  -2.95
iter: 286 18:27:36 -6799.221145c -1.59  -2.91
iter: 287 18:39:40 -6799.234602c -1.65  -2.85
iter: 288 18:51:37 -6799.238925c -2.02  -2.85
iter: 289 19:03:36 -6799.260961c -1.67  -2.84
Writing to output.gpw (mode='')

iter: 290 19:15:37 -6799.257391c -1.99  -2.77
iter: 291 19:27:37 -6799.294317c -1.00  -2.79
iter: 292 19:39:36 -6799.295939c -1.57  -2.82
iter: 293 19:51:39 -6799.327918c -1.43  -2.89
iter: 294 20:03:22 -6799.338255c -1.65  -2.76
Writing to output.gpw (mode='')

iter: 295 20:15:16 -6799.387460c -1.22  -2.73
iter: 296 20:27:12 -6799.379811c -1.78  -2.57
iter: 297 20:39:10 -6799.357583c -1.65  -2.55
iter: 298 20:51:22 -6799.448269c -1.13  -2.63
iter: 299 21:03:26 -6799.436293c -1.68  -2.46
Writing to output.gpw (mode='')

iter: 300 21:15:23 -6799.387661c -1.30  -2.45
iter: 301 21:27:12 -6799.422329c -1.86  -2.58
iter: 302 21:39:25 -6799.419023c -1.26  -2.54
iter: 303 21:51:18 -6799.493853c -0.73  -2.57
iter: 304 22:03:20 -6800.230795  +0.06  -2.52
Writing to output.gpw (mode='')

iter: 305 22:15:13 -6799.692093  -1.18  -1.97
iter: 306 22:27:04 -6799.634201  -1.39  -2.01
iter: 307 22:39:00 -6799.448248  -1.12  -2.02
iter: 308 22:50:45 -6799.296755  -0.46  -2.09
iter: 309 23:02:29 -6799.615151  +0.12  -2.27
Writing to output.gpw (mode='')

iter: 310 23:14:26 -6799.560863  -1.19  -2.46
iter: 311 23:26:19 -6799.559622c -1.55  -2.52
iter: 312 23:37:58 -6799.583361c -1.43  -2.55
iter: 313 23:49:46 -6799.639882c -1.37  -2.53
iter: 314 00:01:39 -6799.564154c -1.53  -2.45
Writing to output.gpw (mode='')

iter: 315 00:13:38 -6799.569618c -1.19  -2.57
iter: 316 00:25:37 -6799.600995c -1.26  -2.65
iter: 317 00:37:32 -6799.607825c -1.80  -2.74
iter: 318 00:49:13 -6799.612276c -1.90  -2.80
iter: 319 01:00:56 -6799.618912c -1.96  -2.81
Writing to output.gpw (mode='')

iter: 320 01:12:45 -6799.624786c -2.39  -2.81
iter: 321 01:24:28 -6799.629457c -2.37  -2.81
iter: 322 01:36:19 -6799.637490c -2.25  -2.81
iter: 323 01:48:01 -6799.642557c -2.43  -2.77
iter: 324 01:59:53 -6799.643669c -2.22  -2.83
Writing to output.gpw (mode='')

iter: 325 02:11:50 -6799.650274c -2.29  -2.83
iter: 326 02:23:31 -6799.650279c -2.21  -2.80
iter: 327 02:35:18 -6799.653649c -1.91  -2.88
iter: 328 02:46:59 -6799.657940c -2.23  -2.93
iter: 329 02:58:40 -6799.668066c -1.56  -2.93
Writing to output.gpw (mode='')

iter: 330 03:10:36 -6799.671419c -2.22  -2.91
iter: 331 03:22:29 -6799.672164c -2.46  -2.94
iter: 332 03:34:08 -6799.674057c -2.70  -2.99
iter: 333 03:46:12 -6799.676264c -2.43  -3.00
iter: 334 03:57:55 -6799.678452c -2.61  -3.03
Writing to output.gpw (mode='')

iter: 335 04:09:37 -6799.685205c -1.80  -3.07
iter: 336 04:21:32 -6799.686641c -2.65  -3.17
iter: 337 04:33:19 -6799.688309c -2.68  -3.16
iter: 338 04:45:18 -6799.690076c -2.78  -3.14
iter: 339 04:57:19 -6799.690177c -2.44  -3.11
Writing to output.gpw (mode='')

iter: 340 05:09:17 -6799.692354c -2.80  -3.19
iter: 341 05:21:37 -6799.694066c -2.05  -3.26
iter: 342 05:33:40 -6799.695788c -2.55  -3.43
iter: 343 05:45:23 -6799.696600c -2.84  -3.43
iter: 344 05:57:17 -6799.697503c -3.07  -3.42
Writing to output.gpw (mode='')

iter: 345 06:09:24 -6799.698208c -2.96  -3.39
iter: 346 06:21:16 -6799.701773c -2.28  -3.41
iter: 347 06:33:16 -6799.703783c -2.62  -3.22
iter: 348 06:45:22 -6799.702662c -3.03  -3.14
iter: 349 06:57:21 -6799.702304c -2.84  -3.14
Writing to output.gpw (mode='')

iter: 350 07:09:35 -6799.702622c -2.67  -3.18
iter: 351 07:21:44 -6799.703995c -3.06  -3.24
iter: 352 07:33:51 -6799.704269c -3.24  -3.26
iter: 353 07:45:53 -6799.704536c -2.46  -3.25
iter: 354 07:57:42 -6799.705098c -2.91  -3.36
Writing to output.gpw (mode='')

iter: 355 08:09:53 -6799.705631c -3.33  -3.49
iter: 356 08:21:47 -6799.706060c -3.32  -3.54
iter: 357 08:33:28 -6799.706531c -3.09  -3.57
iter: 358 08:45:17 -6799.706900c -3.21  -3.73
iter: 359 08:57:04 -6799.707214c -3.30  -3.80
Writing to output.gpw (mode='')

iter: 360 09:08:59 -6799.707616c -3.21  -3.86
iter: 361 09:20:40 -6799.707842c -3.64  -3.86
iter: 362 09:32:16 -6799.708195c -3.39  -3.84
iter: 363 09:43:52 -6799.708530c -3.05  -3.76
iter: 364 09:55:41 -6799.708765c -3.50  -3.94
Writing to output.gpw (mode='')

iter: 365 10:07:26 -6799.709064c -3.27  -3.94
iter: 366 10:18:58 -6799.709467c -3.23  -3.86
iter: 367 10:30:38 -6799.709641c -3.61  -3.81
iter: 368 10:42:17 -6799.709712c -3.53  -3.77
iter: 369 10:53:56 -6799.709880c -3.50  -3.78
Writing to output.gpw (mode='')

iter: 370 11:05:38 -6799.711112c -2.72  -3.79
iter: 371 11:17:17 -6799.710724c -3.55  -3.46
iter: 372 11:28:55 -6799.710685c -3.32  -3.53
iter: 373 11:40:39 -6799.711764c -2.53  -3.62
iter: 374 11:52:23 -6799.711973c -3.29  -3.55
Writing to output.gpw (mode='')

iter: 375 12:03:46 -6799.712802c -3.16  -3.48
iter: 376 12:15:33 -6799.712137c -3.83  -3.37
iter: 377 12:27:25 -6799.712682c -3.51  -3.38
iter: 378 12:39:04 -6799.713063c -3.50  -3.35
iter: 379 12:50:48 -6799.712428c -3.49  -3.31
Writing to output.gpw (mode='')

iter: 380 13:02:24 -6799.712660c -2.37  -3.31
iter: 381 13:14:02 -6799.712423c -3.40  -3.38
iter: 382 13:25:53 -6799.712610c -3.23  -3.48
iter: 383 13:37:38 -6799.713692c -2.94  -3.51
iter: 384 13:49:32 -6799.719129c -2.11  -3.36
Writing to output.gpw (mode='')

iter: 385 14:01:27 -6799.718638c -2.96  -3.00
iter: 386 14:13:21 -6799.711001c -2.96  -2.97
iter: 387 14:25:09 -6799.709991c -2.70  -3.18
iter: 388 14:37:24 -6799.711549c -2.17  -3.31
iter: 389 14:49:12 -6799.712563c -2.80  -3.67
Writing to output.gpw (mode='')

iter: 390 15:01:09 -6799.712993c -3.18  -3.74
iter: 391 15:12:47 -6799.713444c -3.32  -3.72
iter: 392 15:24:41 -6799.713836c -3.23  -3.63
iter: 393 15:36:41 -6799.715216c -2.95  -3.52
iter: 394 15:48:29 -6799.714267c -3.68  -3.29
Writing to output.gpw (mode='')

iter: 395 16:00:35 -6799.714873c -3.61  -3.31
iter: 396 16:12:26 -6799.716351c -3.04  -3.27
iter: 397 16:24:19 -6799.713891c -3.68  -3.15
iter: 398 16:36:14 -6799.713052c -3.30  -3.23
iter: 399 16:48:13 -6799.714368c -3.89  -3.29
Writing to output.gpw (mode='')

iter: 400 17:00:11 -6799.714282c -4.25  -3.25
iter: 401 17:11:57 -6799.726999c -1.71  -3.25
iter: 402 17:24:07 -6799.712662c -2.54  -2.80
iter: 403 17:35:58 -6799.711560c -2.77  -2.91
iter: 404 17:47:46 -6799.709959c -2.23  -2.96
Writing to output.gpw (mode='')

iter: 405 17:59:45 -6799.711942c -2.99  -3.18
iter: 406 18:11:35 -6799.712262c -2.48  -3.22
iter: 407 18:23:29 -6799.713632c -2.39  -3.45
iter: 408 18:35:26 -6799.714999c -2.54  -3.58
iter: 409 18:47:12 -6799.715323c -2.98  -3.51
Writing to output.gpw (mode='')

iter: 410 18:59:24 -6799.714927c -3.53  -3.41
iter: 411 19:11:15 -6799.714280c -3.45  -3.41
iter: 412 19:23:05 -6799.714246c -3.35  -3.54
iter: 413 19:34:53 -6799.714989c -2.75  -3.60
iter: 414 19:46:35 -6799.714528c -3.27  -3.56
Writing to output.gpw (mode='')

iter: 415 19:58:23 -6799.714748c -3.59  -3.80
iter: 416 20:10:14 -6799.714729c -4.09  -3.77
iter: 417 20:22:02 -6799.714671c -3.82  -3.77
iter: 418 20:33:42 -6799.714724c -4.19  -3.85
iter: 419 20:45:46 -6799.714768c -3.98  -3.88
Writing to output.gpw (mode='')

iter: 420 20:57:51 -6799.714838c -3.93  -4.02c
iter: 421 21:09:55 -6799.714830c -4.05  -4.03c
iter: 422 21:21:52 -6799.714871c -4.04  -4.19c
iter: 423 21:33:51 -6799.714904c -4.27  -4.24c
iter: 424 21:45:46 -6799.714946c -4.19  -4.23c
Writing to output.gpw (mode='')

iter: 425 21:57:48 -6799.715002c -4.09  -4.16c
iter: 426 22:09:42 -6799.715051c -4.20  -4.21c
iter: 427 22:21:28 -6799.715141c -3.86  -4.12c
iter: 428 22:33:07 -6799.715099c -4.09  -3.96
iter: 429 22:44:55 -6799.715119c -4.17  -4.07c
Writing to output.gpw (mode='')

iter: 430 22:56:46 -6799.715146c -4.35  -4.10c
iter: 431 23:08:34 -6799.715213c -3.70  -4.11c
iter: 432 23:20:17 -6799.715286c -3.99  -4.18c
iter: 433 23:32:07 -6799.715446c -3.50  -4.06c
iter: 434 23:43:45 -6799.715502c -4.01  -3.86
Writing to output.gpw (mode='')

iter: 435 23:55:45 -6799.715390c -4.14  -3.81
iter: 436 00:07:40 -6799.715433c -4.44  -3.95
iter: 437 00:19:24 -6799.715440c -3.90  -3.94
iter: 438 00:31:01 -6799.715488c -3.79  -4.03c
iter: 439 00:42:54 -6799.715525c -4.35  -4.16c
Writing to output.gpw (mode='')

iter: 440 00:54:45 -6799.715584c -4.07  -4.25c
iter: 441 01:06:32 -6799.715605c -4.10  -4.31c
iter: 442 01:18:22 -6799.715637c -4.23  -4.47c
iter: 443 01:30:13 -6799.715664c -4.47  -4.47c
iter: 444 01:42:09 -6799.715688c -4.48  -4.45c
Writing to output.gpw (mode='')

iter: 445 01:54:09 -6799.715709c -4.68  -4.43c
iter: 446 02:05:58 -6799.715762c -4.18  -4.42c
iter: 447 02:17:54 -6799.715785c -4.43  -4.29c
iter: 448 02:29:41 -6799.715974c -3.48  -4.26c
iter: 449 02:41:19 -6799.715931c -4.37  -3.90
Writing to output.gpw (mode='')

iter: 450 02:52:55 -6799.716259c -3.38  -3.95
iter: 451 03:04:39 -6799.716284c -3.98  -3.65
iter: 452 03:16:24 -6799.716124c -4.32  -3.61
iter: 453 03:28:10 -6799.716077c -4.16  -3.64
iter: 454 03:40:03 -6799.716272c -2.98  -3.68
Writing to output.gpw (mode='')

iter: 455 03:52:22 -6799.716341c -3.93  -3.94
iter: 456 04:04:16 -6799.716333c -4.32  -3.88
iter: 457 04:16:13 -6799.716273c -4.24  -3.88
iter: 458 04:28:07 -6799.716280c -4.13  -4.04c
iter: 459 04:39:50 -6799.716348c -3.74  -4.15c
Writing to output.gpw (mode='')

iter: 460 04:51:47 -6799.716386c -4.23  -4.38c
iter: 461 05:03:30 -6799.716406c -4.40  -4.35c
iter: 462 05:15:19 -6799.716438c -4.36  -4.43c
iter: 463 05:26:55 -6799.716453c -4.58  -4.38c
iter: 464 05:38:52 -6799.716495c -3.86  -4.43c
Writing to output.gpw (mode='')

iter: 465 05:50:49 -6799.716524c -4.30  -4.70c
iter: 466 06:02:39 -6799.716540c -4.52  -4.64c
iter: 467 06:14:14 -6799.716561c -4.40  -4.73c
iter: 468 06:25:54 -6799.716584c -4.37  -4.78c
iter: 469 06:37:28 -6799.716605c -4.43  -4.77c
Writing to output.gpw (mode='')

iter: 470 06:49:24 -6799.716663c -3.94  -4.70c
iter: 471 07:01:25 -6799.716683c -4.50  -4.46c
iter: 472 07:13:13 -6799.716705c -4.26  -4.45c
iter: 473 07:25:08 -6799.716725c -4.42  -4.57c
iter: 474 07:36:51 -6799.716778c -3.83  -4.60c
Writing to output.gpw (mode='')

iter: 475 07:48:27 -6799.716805c -4.36  -4.67c
iter: 476 08:00:02 -6799.716823c -4.52  -4.61c
iter: 477 08:11:41 -6799.716890c -3.75  -4.68c
iter: 478 08:23:18 -6799.716905c -4.56  -4.51c
iter: 479 08:35:04 -6799.716960c -3.98  -4.49c
Writing to output.gpw (mode='')

iter: 480 08:47:00 -6799.716982c -4.51  -4.33c
iter: 481 08:59:04 -6799.716996c -4.54  -4.29c
iter: 482 09:11:00 -6799.717112c -3.65  -4.29c
iter: 483 09:22:47 -6799.717079c -4.04  -4.02c
iter: 484 09:34:42 -6799.717098c -4.21  -4.24c
Writing to output.gpw (mode='')

iter: 485 09:46:49 -6799.717121c -4.59  -4.43c
iter: 486 09:58:29 -6799.717208c -3.73  -4.47c
iter: 487 10:10:30 -6799.717272c -4.00  -4.23c
iter: 488 10:22:18 -6799.717299c -4.26  -4.07c
iter: 489 10:34:08 -6799.717351c -4.12  -3.99
Writing to output.gpw (mode='')

iter: 490 10:45:41 -6799.717406c -4.05  -3.89
iter: 491 10:57:22 -6799.717458c -4.14  -3.80
iter: 492 11:09:15 -6799.717456c -4.50  -3.73
iter: 493 11:21:01 -6799.717391c -4.59  -3.70
iter: 494 11:32:44 -6799.717354c -4.42  -3.72
Writing to output.gpw (mode='')

iter: 495 11:44:29 -6799.717335c -4.00  -3.74
iter: 496 11:56:19 -6799.717359c -4.41  -3.81
iter: 497 12:08:06 -6799.717406c -3.37  -3.83
iter: 498 12:19:45 -6799.717447c -4.24  -4.45c
iter: 499 12:31:22 -6799.717465c -4.68  -4.50c
Writing to output.gpw (mode='')

iter: 500 12:43:02 -6799.717481c -4.82  -4.54c
iter: 501 12:54:44 -6799.717503c -4.50  -4.61c
iter: 502 13:06:24 -6799.717518c -4.70  -4.74c
iter: 503 13:18:21 -6799.717538c -4.70  -4.78c
iter: 504 13:30:23 -6799.717552c -4.75  -4.89c
Writing to output.gpw (mode='')

iter: 505 13:41:59 -6799.717565c -4.74  -4.88c
iter: 506 13:53:38 -6799.717583c -4.73  -4.86c
iter: 507 14:05:07 -6799.717609c -4.24  -4.71c
iter: 508 14:16:52 -6799.717627c -4.49  -4.84c
iter: 509 14:28:23 -6799.717639c -4.72  -4.87c
Writing to output.gpw (mode='')

iter: 510 14:40:18 -6799.717695c -3.87  -4.85c
iter: 511 14:51:54 -6799.717727c -4.28  -4.53c
iter: 512 15:03:37 -6799.717740c -4.67  -4.39c
iter: 513 15:15:18 -6799.717755c -4.70  -4.33c
iter: 514 15:27:09 -6799.717764c -4.82  -4.28c
Writing to output.gpw (mode='')

iter: 515 15:38:58 -6799.717812c -4.17  -4.26c
iter: 516 15:50:45 -6799.717807c -4.73  -4.13c
iter: 517 16:02:31 -6799.717822c -4.26  -4.14c
iter: 518 16:14:24 -6799.717835c -4.66  -4.19c
iter: 519 16:26:08 -6799.717847c -4.57  -4.21c
Writing to output.gpw (mode='')

iter: 520 16:37:53 -6799.717890c -3.92  -4.23c
iter: 521 16:49:32 -6799.717917c -4.29  -4.48c
iter: 522 17:01:02 -6799.717934c -4.64  -4.53c
iter: 523 17:12:36 -6799.717950c -4.52  -4.56c
iter: 524 17:24:06 -6799.717963c -4.80  -4.60c
Writing to output.gpw (mode='')

iter: 525 17:35:50 -6799.717978c -4.55  -4.68c
iter: 526 17:47:35 -6799.718000c -4.33  -4.71c
iter: 527 17:59:28 -6799.718013c -4.70  -4.75c
iter: 528 18:11:23 -6799.718043c -4.19  -4.73c
iter: 529 18:23:27 -6799.718056c -4.68  -4.61c
Writing to output.gpw (mode='')

iter: 530 18:35:26 -6799.718077c -4.43  -4.65c
iter: 531 18:47:13 -6799.718094c -4.56  -4.84c
iter: 532 18:59:05 -6799.718106c -4.77  -4.78c
iter: 533 19:11:08 -6799.718122c -4.62  -4.77c
iter: 534 19:23:00 -6799.718134c -4.73  -4.66c
Writing to output.gpw (mode='')

iter: 535 19:34:59 -6799.718145c -4.74  -4.75c
iter: 536 19:47:10 -6799.718160c -4.63  -4.75c
iter: 537 19:58:50 -6799.718207c -3.99  -4.74c
iter: 538 20:10:29 -6799.718221c -4.82  -4.73c
iter: 539 20:21:57 -6799.718240c -4.45  -4.73c
Writing to output.gpw (mode='')

iter: 540 20:33:43 -6799.718257c -4.57  -4.67c
iter: 541 20:45:20 -6799.718269c -4.77  -4.67c
iter: 542 20:57:14 -6799.718284c -4.68  -4.64c
iter: 543 21:08:54 -6799.718292c -5.01  -4.52c
iter: 544 21:20:34 -6799.718305c -4.70  -4.58c
Writing to output.gpw (mode='')

iter: 545 21:32:05 -6799.718319c -4.61  -4.58c
iter: 546 21:43:36 -6799.718333c -4.68  -4.56c
iter: 547 21:55:13 -6799.718360c -4.22  -4.55c
iter: 548 22:06:47 -6799.718373c -4.87  -4.52c
iter: 549 22:18:23 -6799.718410c -4.04  -4.46c
Writing to output.gpw (mode='')

iter: 550 22:29:58 -6799.718422c -4.80  -4.59c
iter: 551 22:41:44 -6799.718435c -4.71  -4.61c
iter: 552 22:53:37 -6799.718451c -4.72  -4.64c
iter: 553 23:05:41 -6799.718467c -4.49  -4.73c
iter: 554 23:17:23 -6799.718480c -4.57  -4.78c
Writing to output.gpw (mode='')

iter: 555 23:29:05 -6799.718493c -4.82  -4.79c
iter: 556 23:41:00 -6799.718501c -5.04  -4.78c
iter: 557 23:52:43 -6799.718516c -4.81  -4.76c
iter: 558 00:04:34 -6799.718531c -4.60  -4.77c
iter: 559 00:16:19 -6799.718542c -4.77  -4.79c
Writing to output.gpw (mode='')

iter: 560 00:28:01 -6799.718558c -4.61  -4.74c
iter: 561 00:39:51 -6799.718581c -4.29  -4.71c
iter: 562 00:51:40 -6799.718594c -4.66  -4.61c
iter: 563 01:03:21 -6799.718607c -4.63  -4.58c
iter: 564 01:15:07 -6799.718623c -4.55  -4.54c
Writing to output.gpw (mode='')

iter: 565 01:27:01 -6799.718632c -4.93  -4.53c
iter: 566 01:38:35 -6799.718641c -5.00  -4.54c
iter: 567 01:50:15 -6799.718673c -4.15  -4.57c
iter: 568 02:01:56 -6799.718686c -4.74  -4.61c
iter: 569 02:13:33 -6799.718720c -4.15  -4.72c
Writing to output.gpw (mode='')

iter: 570 02:25:16 -6799.718730c -4.93  -4.62c
iter: 571 02:37:15 -6799.718743c -4.53  -4.60c
iter: 572 02:48:58 -6799.718756c -4.65  -4.67c
iter: 573 03:00:47 -6799.718770c -4.69  -4.68c
iter: 574 03:12:35 -6799.718778c -5.02  -4.68c
Writing to output.gpw (mode='')

iter: 575 03:24:27 -6799.718813c -4.08  -4.67c
iter: 576 03:36:09 -6799.718826c -4.78  -4.69c
iter: 577 03:47:58 -6799.718841c -4.71  -4.71c
iter: 578 03:59:48 -6799.718851c -4.85  -4.79c
iter: 579 04:11:44 -6799.718868c -4.43  -4.83c
Writing to output.gpw (mode='')

iter: 580 04:23:29 -6799.718877c -4.97  -4.86c
iter: 581 04:35:30 -6799.718890c -4.65  -4.89c
iter: 582 04:47:30 -6799.718900c -4.76  -4.99c
iter: 583 04:59:24 -6799.718909c -4.87  -5.00c
iter: 584 05:11:10 -6799.718927c -4.34  -5.04c
Writing to output.gpw (mode='')

iter: 585 05:22:42 -6799.718938c -4.81  -5.07c
iter: 586 05:34:36 -6799.718946c -4.87  -5.11c
iter: 587 05:46:14 -6799.718965c -4.37  -5.13c
iter: 588 05:57:57 -6799.718976c -4.71  -5.12c
iter: 589 06:09:57 -6799.718984c -4.80  -5.08c
Writing to output.gpw (mode='')

iter: 590 06:22:05 -6799.718995c -4.73  -5.07c
iter: 591 06:33:55 -6799.719009c -4.51  -5.00c
iter: 592 06:45:43 -6799.719017c -4.93  -4.90c
iter: 593 06:57:46 -6799.719030c -4.57  -4.89c
iter: 594 07:09:33 -6799.719037c -4.99  -4.87c
Writing to output.gpw (mode='')

iter: 595 07:21:38 -6799.719083c -4.11  -4.89c
iter: 596 07:33:47 -6799.719101c -4.58  -4.73c
iter: 597 07:45:58 -6799.719111c -4.86  -4.70c
iter: 598 07:58:01 -6799.719119c -4.96  -4.63c
iter: 599 08:09:58 -6799.719129c -4.73  -4.65c
Writing to output.gpw (mode='')

iter: 600 08:21:51 -6799.719139c -4.85  -4.67c
iter: 601 08:33:34 -6799.719153c -4.56  -4.75c
iter: 602 08:45:41 -6799.719162c -4.83  -4.84c
iter: 603 08:57:51 -6799.719170c -4.85  -4.88c
iter: 604 09:09:52 -6799.719203c -4.12  -4.90c
Writing to output.gpw (mode='')

iter: 605 09:21:59 -6799.719214c -4.92  -4.92c
iter: 606 09:34:00 -6799.719228c -4.53  -5.14c
iter: 607 09:46:03 -6799.719236c -4.98  -4.98c
iter: 608 09:58:00 -6799.719243c -5.02  -4.91c
iter: 609 10:09:50 -6799.719249c -5.20  -4.94c
Writing to output.gpw (mode='')

iter: 610 10:21:34 -6799.719265c -4.49  -4.92c
iter: 611 10:33:20 -6799.719273c -4.91  -4.79c
iter: 612 10:45:17 -6799.719293c -4.27  -4.77c
iter: 613 10:56:57 -6799.719301c -5.02  -4.76c
iter: 614 11:08:43 -6799.719307c -5.15  -4.76c
Writing to output.gpw (mode='')

iter: 615 11:20:43 -6799.719363c -4.08  -4.79c
iter: 616 11:33:02 -6799.719373c -4.96  -4.40c
iter: 617 11:44:49 -6799.719382c -5.19  -4.37c
iter: 618 11:56:34 -6799.719395c -4.84  -4.34c
iter: 619 12:08:40 -6799.719396c -4.97  -4.26c
Writing to output.gpw (mode='')

iter: 620 12:20:50 -6799.719406c -4.96  -4.27c
iter: 621 12:32:37 -6799.719411c -4.59  -4.25c
iter: 622 12:44:38 -6799.719418c -4.98  -4.28c
iter: 623 12:56:32 -6799.719451c -4.17  -4.28c
iter: 624 13:08:04 -6799.719452c -4.88  -4.35c
Writing to output.gpw (mode='')

iter: 625 13:20:05 -6799.719462c -4.63  -4.60c
iter: 626 13:32:14 -6799.719470c -5.03  -4.74c
iter: 627 13:43:44 -6799.719477c -5.06  -4.76c
iter: 628 13:55:14 -6799.719485c -5.01  -4.77c
iter: 629 14:06:50 -6799.719493c -4.93  -4.76c
Writing to output.gpw (mode='')

iter: 630 14:18:36 -6799.719498c -5.15  -4.78c
iter: 631 14:30:08 -6799.719508c -5.00  -4.78c
iter: 632 14:41:49 -6799.719514c -5.03  -4.81c
iter: 633 14:53:24 -6799.719527c -4.55  -4.88c
iter: 634 15:05:09 -6799.719533c -4.97  -5.01c
Writing to output.gpw (mode='')

iter: 635 15:16:49 -6799.719539c -5.00  -4.97c
iter: 636 15:28:28 -6799.719544c -5.13  -4.92c
iter: 637 15:40:14 -6799.719551c -5.08  -4.90c
iter: 638 15:52:11 -6799.719556c -5.10  -4.89c
iter: 639 16:04:16 -6799.719563c -4.97  -4.87c
Writing to output.gpw (mode='')

iter: 640 16:16:18 -6799.719576c -4.55  -4.84c
iter: 641 16:28:07 -6799.719584c -4.68  -4.76c
iter: 642 16:39:52 -6799.719592c -4.87  -4.74c
iter: 643 16:51:47 -6799.719611c -4.36  -4.72c
iter: 644 17:03:38 -6799.719617c -4.92  -4.61c
Writing to output.gpw (mode='')

iter: 645 17:15:28 -6799.719626c -4.64  -4.63c
iter: 646 17:27:15 -6799.719632c -5.16  -4.71c
iter: 647 17:39:03 -6799.719643c -4.75  -4.70c
iter: 648 17:50:44 -6799.719649c -5.08  -4.74c
iter: 649 18:02:38 -6799.719658c -4.84  -4.78c
Writing to output.gpw (mode='')

iter: 650 18:14:19 -6799.719663c -5.04  -4.88c
iter: 651 18:26:00 -6799.719672c -4.68  -4.89c
iter: 652 18:37:37 -6799.719678c -5.12  -4.88c
iter: 653 18:49:31 -6799.719687c -4.78  -4.90c
iter: 654 19:01:22 -6799.719694c -4.91  -4.88c
Writing to output.gpw (mode='')

iter: 655 19:13:26 -6799.719698c -5.22  -4.87c
iter: 656 19:25:10 -6799.719704c -5.02  -4.78c
iter: 657 19:37:05 -6799.719710c -4.92  -4.82c
iter: 658 19:48:55 -6799.719728c -4.47  -4.81c
iter: 659 20:00:35 -6799.719734c -5.02  -4.55c
Writing to output.gpw (mode='')

iter: 660 20:12:36 -6799.719741c -4.82  -4.59c
iter: 661 20:24:22 -6799.719746c -5.12  -4.71c
iter: 662 20:36:07 -6799.719753c -4.89  -4.78c
iter: 663 20:47:35 -6799.719768c -4.53  -4.84c
iter: 664 20:59:18 -6799.719774c -5.18  -4.76c
Writing to output.gpw (mode='')

iter: 665 21:10:56 -6799.719778c -5.20  -4.71c
iter: 666 21:22:43 -6799.719784c -5.03  -4.66c
iter: 667 21:34:24 -6799.719789c -5.10  -4.61c
iter: 668 21:46:05 -6799.719793c -5.23  -4.58c
iter: 669 21:57:56 -6799.719806c -4.61  -4.56c
Writing to output.gpw (mode='')

iter: 670 22:09:47 -6799.719815c -4.90  -4.45c
iter: 671 22:21:23 -6799.719825c -4.64  -4.41c
iter: 672 22:32:56 -6799.719831c -5.06  -4.33c
iter: 673 22:44:36 -6799.719831c -4.96  -4.31c
iter: 674 22:56:24 -6799.719834c -5.19  -4.35c
Writing to output.gpw (mode='')

iter: 675 23:08:12 -6799.719837c -5.17  -4.36c
iter: 676 23:19:59 -6799.719866c -4.25  -4.39c
iter: 677 23:31:40 -6799.719863c -4.45  -4.27c
iter: 678 23:43:19 -6799.719868c -4.73  -4.50c
iter: 679 23:54:53 -6799.719874c -5.12  -4.68c
Writing to output.gpw (mode='')

iter: 680 00:06:22 -6799.719881c -5.05  -4.74c
iter: 681 00:17:57 -6799.719887c -5.05  -4.87c
iter: 682 00:29:29 -6799.719891c -5.20  -4.90c
iter: 683 00:41:05 -6799.719895c -5.20  -4.93c
iter: 684 00:52:55 -6799.719908c -4.60  -4.89c
Writing to output.gpw (mode='')

iter: 685 01:04:34 -6799.719914c -5.02  -4.55c
iter: 686 01:16:43 -6799.719917c -5.36  -4.50c
iter: 687 01:28:45 -6799.719920c -5.20  -4.47c
iter: 688 01:40:31 -6799.719926c -5.27  -4.47c
iter: 689 01:52:19 -6799.719928c -5.13  -4.43c
Writing to output.gpw (mode='')

iter: 690 02:04:10 -6799.719943c -4.61  -4.43c
iter: 691 02:15:53 -6799.719945c -5.01  -4.33c
iter: 692 02:27:46 -6799.719947c -5.10  -4.34c
iter: 693 02:39:46 -6799.719953c -4.68  -4.37c
iter: 694 02:51:44 -6799.719959c -4.89  -4.58c
Writing to output.gpw (mode='')

iter: 695 03:03:53 -6799.719970c -4.55  -4.68c
iter: 696 03:15:48 -6799.719975c -5.07  -4.74c
iter: 697 03:27:41 -6799.719978c -5.33  -4.74c
iter: 698 03:39:32 -6799.719983c -5.17  -4.73c
iter: 699 03:51:23 -6799.719987c -5.34  -4.69c
Writing to output.gpw (mode='')

iter: 700 04:03:22 -6799.719995c -4.98  -4.67c
iter: 701 04:15:02 -6799.719997c -5.07  -4.56c
iter: 702 04:26:41 -6799.720003c -5.26  -4.60c
iter: 703 04:38:32 -6799.720007c -5.05  -4.57c
iter: 704 04:50:26 -6799.720014c -4.80  -4.57c
Writing to output.gpw (mode='')

iter: 705 05:02:08 -6799.720024c -4.60  -4.57c
iter: 706 05:13:59 -6799.720033c -4.79  -4.57c
iter: 707 05:25:44 -6799.720040c -5.00  -4.52c
iter: 708 05:37:40 -6799.720047c -4.84  -4.53c
iter: 709 05:49:20 -6799.720053c -4.80  -4.45c
Writing to output.gpw (mode='')

iter: 710 06:01:31 -6799.720065c -4.42  -4.41c
iter: 711 06:13:30 -6799.720073c -4.92  -4.52c
iter: 712 06:25:24 -6799.720070c -4.91  -4.46c
iter: 713 06:37:44 -6799.720074c -5.02  -4.62c
iter: 714 06:49:38 -6799.720078c -5.06  -4.71c
Writing to output.gpw (mode='')

iter: 715 07:01:31 -6799.720084c -4.98  -4.77c
iter: 716 07:13:24 -6799.720090c -4.97  -4.83c
iter: 717 07:25:20 -6799.720094c -5.17  -4.78c
iter: 718 07:37:23 -6799.720097c -5.19  -4.75c
iter: 719 07:49:14 -6799.720100c -5.33  -4.77c
Writing to output.gpw (mode='')

iter: 720 08:01:13 -6799.720103c -5.28  -4.77c
iter: 721 08:13:20 -6799.720110c -4.90  -4.75c
iter: 722 08:25:17 -6799.720114c -5.06  -4.79c
iter: 723 08:37:21 -6799.720117c -5.28  -4.93c
iter: 724 08:49:26 -6799.720123c -4.93  -4.96c
Writing to output.gpw (mode='')

iter: 725 09:01:06 -6799.720126c -5.15  -4.88c
iter: 726 09:13:00 -6799.720136c -4.57  -5.00c
iter: 727 09:24:46 -6799.720139c -5.36  -4.89c
iter: 728 09:36:41 -6799.720141c -5.50  -4.93c
iter: 729 09:48:17 -6799.720145c -5.15  -4.91c
Writing to output.gpw (mode='')

iter: 730 10:00:16 -6799.720147c -5.42  -4.96c
iter: 731 10:12:05 -6799.720153c -4.95  -4.96c
iter: 732 10:23:36 -6799.720159c -4.83  -5.03c
iter: 733 10:35:10 -6799.720164c -5.29  -5.03c
iter: 734 10:46:49 -6799.720169c -5.12  -5.04c
Writing to output.gpw (mode='')

iter: 735 10:58:40 -6799.720173c -5.29  -5.10c
iter: 736 11:10:16 -6799.720179c -5.05  -5.13c
iter: 737 11:21:46 -6799.720184c -4.99  -5.21c
iter: 738 11:33:30 -6799.720189c -5.03  -5.33c
iter: 739 11:45:03 -6799.720192c -5.48  -5.37c
Writing to output.gpw (mode='')

iter: 740 11:56:35 -6799.720194c -5.61  -5.38c
iter: 741 12:08:14 -6799.720197c -5.58  -5.33c
iter: 742 12:20:08 -6799.720200c -5.30  -5.35c
iter: 743 12:31:39 -6799.720203c -5.56  -5.29c
iter: 744 12:43:18 -6799.720206c -5.18  -5.26c
Writing to output.gpw (mode='')

iter: 745 12:54:54 -6799.720209c -5.46  -5.23c
iter: 746 13:06:34 -6799.720219c -4.65  -5.18c
iter: 747 13:18:08 -6799.720222c -5.50  -5.06c
iter: 748 13:30:02 -6799.720225c -5.47  -5.08c
iter: 749 13:41:38 -6799.720228c -5.59  -5.07c
Writing to output.gpw (mode='')

iter: 750 13:53:28 -6799.720234c -4.90  -5.05c
iter: 751 14:05:19 -6799.720238c -5.24  -5.02c
iter: 752 14:17:11 -6799.720247c -4.71  -4.95c
iter: 753 14:28:55 -6799.720250c -5.56  -4.87c
iter: 754 14:40:38 -6799.720266c -4.45  -4.84c
Writing to output.gpw (mode='')

iter: 755 14:52:21 -6799.720268c -5.28  -4.60c
iter: 756 15:04:15 -6799.720273c -5.45  -4.66c
iter: 757 15:15:59 -6799.720278c -4.68  -4.58c
iter: 758 15:27:38 -6799.720290c -4.43  -4.76c
iter: 759 15:39:20 -6799.720305c -4.60  -4.63c
Writing to output.gpw (mode='')

iter: 760 15:51:03 -6799.720303c -5.34  -4.38c
iter: 761 16:02:38 -6799.720306c -5.53  -4.34c
iter: 762 16:14:18 -6799.720309c -5.50  -4.31c
iter: 763 16:25:59 -6799.720319c -5.21  -4.29c
iter: 764 16:38:00 -6799.720316c -5.60  -4.21c
Writing to output.gpw (mode='')

iter: 765 16:49:43 -6799.720319c -5.53  -4.20c
iter: 766 17:01:38 -6799.720331c -5.20  -4.19c
iter: 767 17:13:30 -6799.720315c -4.98  -4.14c
iter: 768 17:25:16 -6799.720307c -4.41  -4.20c
iter: 769 17:37:04 -6799.720328c -4.15  -4.39c
Writing to output.gpw (mode='')

iter: 770 17:48:50 -6799.720325c -5.32  -4.47c
iter: 771 18:00:47 -6799.720328c -5.59  -4.68c
iter: 772 18:12:43 -6799.720330c -5.56  -4.70c
iter: 773 18:24:30 -6799.720335c -5.02  -4.74c
iter: 774 18:36:21 -6799.720338c -5.40  -4.78c
Writing to output.gpw (mode='')

iter: 775 18:48:06 -6799.720341c -5.31  -4.73c
iter: 776 18:59:45 -6799.720344c -5.24  -4.65c
iter: 777 19:11:32 -6799.720347c -5.45  -4.59c
iter: 778 19:23:14 -6799.720351c -5.45  -4.55c
iter: 779 19:34:55 -6799.720352c -5.38  -4.51c
Writing to output.gpw (mode='')

iter: 780 19:46:44 -6799.720354c -5.01  -4.51c
iter: 781 19:58:33 -6799.720359c -4.65  -4.56c
iter: 782 20:10:12 -6799.720363c -5.47  -4.71c
iter: 783 20:21:55 -6799.720370c -4.97  -4.74c
iter: 784 20:33:45 -6799.720372c -5.49  -4.66c
Writing to output.gpw (mode='')

iter: 785 20:45:41 -6799.720373c -5.45  -4.65c
iter: 786 20:57:38 -6799.720376c -5.16  -4.70c
iter: 787 21:09:45 -6799.720383c -4.76  -4.73c
iter: 788 21:21:52 -6799.720386c -5.25  -4.82c
iter: 789 21:33:47 -6799.720391c -4.93  -4.86c
Writing to output.gpw (mode='')

iter: 790 21:45:57 -6799.720401c -4.75  -4.76c
iter: 791 21:57:45 -6799.720396c -5.01  -4.54c
iter: 792 22:09:27 -6799.720400c -5.15  -4.78c
iter: 793 22:21:21 -6799.720402c -5.66  -4.79c
iter: 794 22:33:13 -6799.720405c -5.39  -4.77c
Writing to output.gpw (mode='')

iter: 795 22:45:08 -6799.720409c -5.39  -4.80c
iter: 796 22:56:48 -6799.720413c -5.36  -4.83c
iter: 797 23:08:40 -6799.720420c -4.97  -4.79c
iter: 798 23:20:21 -6799.720419c -5.44  -4.58c
iter: 799 23:32:16 -6799.720421c -5.61  -4.65c
Writing to output.gpw (mode='')

iter: 800 23:44:10 -6799.720424c -5.09  -4.64c
iter: 801 23:55:58 -6799.720428c -5.58  -4.73c
iter: 802 00:07:54 -6799.720430c -5.29  -4.70c
iter: 803 00:19:48 -6799.720438c -4.71  -4.69c
iter: 804 00:31:33 -6799.720441c -5.32  -4.67c
Writing to output.gpw (mode='')

iter: 805 00:43:20 -6799.720443c -5.69  -4.75c
iter: 806 00:55:13 -6799.720447c -5.24  -4.75c
iter: 807 01:06:53 -6799.720451c -5.21  -4.78c
iter: 808 01:18:30 -6799.720453c -5.44  -4.89c
iter: 809 01:30:13 -6799.720457c -5.28  -4.94c
Writing to output.gpw (mode='')

iter: 810 01:42:19 -6799.720462c -5.01  -4.99c
iter: 811 01:54:22 -6799.720464c -5.64  -4.88c
iter: 812 02:05:58 -6799.720467c -5.54  -4.89c
iter: 813 02:17:37 -6799.720473c -4.98  -4.90c
iter: 814 02:29:41 -6799.720476c -5.40  -4.76c
Writing to output.gpw (mode='')

iter: 815 02:41:29 -6799.720478c -5.46  -4.74c
iter: 816 02:53:17 -6799.720482c -4.91  -4.83c
iter: 817 03:04:56 -6799.720485c -5.41  -4.99c
iter: 818 03:16:26 -6799.720488c -5.55  -4.98c
iter: 819 03:28:16 -6799.720490c -5.56  -5.01c
Writing to output.gpw (mode='')

iter: 820 03:40:05 -6799.720493c -5.32  -5.02c
iter: 821 03:51:55 -6799.720496c -5.39  -5.02c
iter: 822 04:03:53 -6799.720500c -5.57  -5.03c
iter: 823 04:15:28 -6799.720503c -5.43  -5.08c
iter: 824 04:27:19 -6799.720506c -5.43  -5.18c
Writing to output.gpw (mode='')

iter: 825 04:38:56 -6799.720508c -5.57  -5.22c
iter: 826 04:50:42 -6799.720511c -5.43  -5.23c
iter: 827 05:02:31 -6799.720514c -5.59  -5.22c
iter: 828 05:14:44 -6799.720522c -4.85  -5.18c
iter: 829 05:26:35 -6799.720525c -5.55  -4.94c
Writing to output.gpw (mode='')

iter: 830 05:38:23 -6799.720531c -5.04  -4.97c
iter: 831 05:50:11 -6799.720534c -5.35  -4.77c
iter: 832 06:01:53 -6799.720536c -5.48  -4.72c
iter: 833 06:13:48 -6799.720540c -5.01  -4.69c
iter: 834 06:25:39 -6799.720544c -5.07  -4.91c
Writing to output.gpw (mode='')

iter: 835 06:37:26 -6799.720547c -5.37  -5.09c
iter: 836 06:49:01 -6799.720551c -5.39  -5.12c
iter: 837 07:00:40 -6799.720554c -5.39  -5.12c
iter: 838 07:12:11 -6799.720558c -5.36  -5.08c
iter: 839 07:23:52 -6799.720562c -5.50  -5.04c
Writing to output.gpw (mode='')

iter: 840 07:35:45 -6799.720564c -5.59  -4.93c
iter: 841 07:47:37 -6799.720568c -5.45  -4.90c
iter: 842 07:59:31 -6799.720571c -5.53  -4.83c
iter: 843 08:11:09 -6799.720577c -5.14  -4.80c
iter: 844 08:22:53 -6799.720580c -5.37  -4.70c
Writing to output.gpw (mode='')

iter: 845 08:34:41 -6799.720585c -5.21  -4.69c
iter: 846 08:46:31 -6799.720588c -5.48  -4.63c
iter: 847 08:58:09 -6799.720592c -5.24  -4.61c
iter: 848 09:09:54 -6799.720597c -5.18  -4.57c
iter: 849 09:21:39 -6799.720601c -4.87  -4.51c
Writing to output.gpw (mode='')

iter: 850 09:33:25 -6799.720605c -5.37  -4.60c
iter: 851 09:45:09 -6799.720611c -5.13  -4.66c
