
  ___ ___ ___ _ _ _  
 |   |   |_  | | | | 
 | | | | | . | | | | 
 |__ |  _|___|_____|  22.8.0
 |___|_|             

User:   vazumah@c11.hercules
Date:   Tue Jan 17 16:02:36 2023
Arch:   x86_64
Pid:    4369
CWD:    /home/vazumah/Python_projects/LiNRR/autocad_start/slab_experiments/fixed_slab_def_vacuum/Al/fcc110/substrate
Python: 3.10.8
gpaw:   /home/vazumah/.conda/envs/GPAW/lib/python3.10/site-packages/gpaw
_gpaw:  /home/vazumah/.conda/envs/GPAW/lib/python3.10/site-packages/
        _gpaw.cpython-310-x86_64-linux-gnu.so
ase:    /home/vazumah/.conda/envs/GPAW/lib/python3.10/site-packages/ase (version 3.22.1)
numpy:  /home/vazumah/.conda/envs/GPAW/lib/python3.10/site-packages/numpy (version 1.24.1)
scipy:  /home/vazumah/.conda/envs/GPAW/lib/python3.10/site-packages/scipy (version 1.10.0)
libxc:  5.2.3
units:  Angstrom and eV
cores: 24
OpenMP: True
OMP_NUM_THREADS: 1

Input parameters:
  h: 0.16
  kpts: {size: [4, 4, 1]}
  maxiter: 999
  occupations: {name: fermi-dirac,
                width: 0.05}
  poissonsolver: {dipolelayer: xy}
  xc: BEEF-vdW

System changes: positions, numbers, cell, pbc, initial_charges, initial_magmoms 

Initialize ...

species:
  Al:
    name: Aluminium
    id: 0292cae29f5d6237e50f6abdd43a7bdd
    Z: 13.0
    valence: 3
    core: 10
    charge: 0.0
    file: /home/vazumah/.conda/envs/GPAW/share/gpaw/Al.PBE.gz
    compensation charges: {type: gauss,
                           rc: 0.34,
                           lmax: 2}
    cutoffs: {filter: 1.91,
              core: 2.36}
    valence states:
      #              energy  rcut
      - 3s(2.00)    -7.753   1.085
      - 3p(1.00)    -2.712   1.085
      -  s          19.459   1.085
      -  p          24.499   1.085
      -  d           0.000   1.085
  
    # Using partial waves for Al as LCAO basis

Reference energy: -237723.237536  # eV

Spin-paired calculation

Convergence criteria:
 Maximum [total energy] change in last 3 cyles: 0.0005 eV / electron
 Maximum integral of absolute [dens]ity change: 0.0001 electrons / valence electron
 Maximum integral of absolute [eigenst]ate change: 4e-08 eV^2 / valence electron
 Maximum number of scf [iter]ations: 999
 (Square brackets indicate name in SCF output, whereas a 'c' in
 the SCF output indicates the quantity has converged.)

Symmetries present (total): 4

  ( 1  0  0)  ( 1  0  0)  (-1  0  0)  (-1  0  0)
  ( 0  1  0)  ( 0 -1  0)  ( 0  1  0)  ( 0 -1  0)
  ( 0  0  1)  ( 0  0  1)  ( 0  0  1)  ( 0  0  1)

16 k-points: 4 x 4 x 1 Monkhorst-Pack grid
4 k-points in the irreducible part of the Brillouin zone
       k-points in crystal coordinates                weights
   0:     0.12500000    0.12500000    0.00000000          4/16
   1:     0.12500000    0.37500000    0.00000000          4/16
   2:     0.37500000    0.12500000    0.00000000          4/16
   3:     0.37500000    0.37500000    0.00000000          4/16

Wave functions: Uniform real-space grid
  Kinetic energy operator: 6*3+1=19 point O(h^6) finite-difference Laplacian
  ScaLapack parameters: grid=1x1, blocksize=None
  Wavefunction extrapolation:
    Improved wavefunction reuse through dual PAW basis 

Occupation numbers: Fermi-Dirac:
  width: 0.0500  # eV
 

Eigensolver
   Davidson(niter=2) 

Densities:
  Coarse grid: 76*52*152 grid
  Fine grid: 152*104*304 grid
  Total Charge: 0.000000 

Density mixing:
  Method: separate
  Backend: pulay
  Linear mixing parameter: 0.05
  old densities: 5
  Damping of long wavelength oscillations: 50 

Hamiltonian:
  XC and Coulomb potentials evaluated on a 152*104*304 grid
  Using the BEEF-vdW Exchange-Correlation functional
  Interpolation: tri-quintic (5. degree polynomial)
  Poisson solver: FastPoissonSolver using
    Stencil: 6*3+1=19 point O(h^6) finite-difference Laplacian
    FFT axes: [0, 1]
    FST axes: [2]

Dipole correction along z-axis 

XC parameters: BEEF-vdW with 2 nearest neighbor stencil

Memory estimate:
  Process memory now: 156.64 MiB
  Calculator: 297.24 MiB
    Density: 61.31 MiB
      Arrays: 19.78 MiB
      Localized functions: 34.00 MiB
      Mixer: 7.54 MiB
    Hamiltonian: 15.45 MiB
      Arrays: 12.93 MiB
      XC: 0.00 MiB
      Poisson: 0.00 MiB
      vbar: 2.51 MiB
    Wavefunctions: 220.48 MiB
      Arrays psit_nG: 104.02 MiB
      Eigensolver: 112.29 MiB
      Projections: 0.08 MiB
      Projectors: 4.08 MiB

Total number of cores used: 24
Parallelization over k-points: 4
Domain decomposition: 2 x 1 x 3

Number of atoms: 36
Number of atomic orbitals: 144
Number of bands in calculation: 69
Number of valence electrons: 108
Bands to converge: occupied

... initialized

Initializing position-dependent things.

Density initialized from atomic densities
Creating initial wave functions:
  69 bands from LCAO basis set

      .-----------------------------.  
     /|                             |  
    / |                             |  
   /  |                             |  
  /   |                             |  
 *    |                             |  
 |    |                             |  
 |    |                             |  
 |    |                             |  
 |    |                             |  
 |    |                             |  
 |    |                             |  
 |    |                             |  
 |    |                             |  
 |  Al|       Al        Al          |  
 |    |   Al        Al        Al    |  
 | Al |      Al        Al           |  
 Al   |  AlAl      AlAl     Al      |  
 |  Al|Al Al  Al Al Al  Al Al Al    |  
 | Al |      Al        Al           |  
 |    |  Al        Al       Al      |  
 Al   |    Al        Al             |  
 |    |Al        Al        Al       |  
 |    |                             |  
 |    |                             |  
 |    |                             |  
 |    |                             |  
 |    |                             |  
 |    |                             |  
 |    |                             |  
 |    .-----------------------------.  
 |   /                             /   
 |  /                             /    
 | /                             /     
 |/                             /      
 *-----------------------------*       

Positions:
   0 Al     2.025000    1.431891   10.000000    ( 0.0000,  0.0000,  0.0000)
   1 Al     6.075000    1.431891   10.000000    ( 0.0000,  0.0000,  0.0000)
   2 Al    10.125000    1.431891   10.000000    ( 0.0000,  0.0000,  0.0000)
   3 Al     2.025000    4.295674   10.000000    ( 0.0000,  0.0000,  0.0000)
   4 Al     6.075000    4.295674   10.000000    ( 0.0000,  0.0000,  0.0000)
   5 Al    10.125000    4.295674   10.000000    ( 0.0000,  0.0000,  0.0000)
   6 Al     2.025000    7.159456   10.000000    ( 0.0000,  0.0000,  0.0000)
   7 Al     6.075000    7.159456   10.000000    ( 0.0000,  0.0000,  0.0000)
   8 Al    10.125000    7.159456   10.000000    ( 0.0000,  0.0000,  0.0000)
   9 Al     0.000000    0.000000   11.431891    ( 0.0000,  0.0000,  0.0000)
  10 Al     4.050000    0.000000   11.431891    ( 0.0000,  0.0000,  0.0000)
  11 Al     8.100000    0.000000   11.431891    ( 0.0000,  0.0000,  0.0000)
  12 Al     0.000000    2.863782   11.431891    ( 0.0000,  0.0000,  0.0000)
  13 Al     4.050000    2.863782   11.431891    ( 0.0000,  0.0000,  0.0000)
  14 Al     8.100000    2.863782   11.431891    ( 0.0000,  0.0000,  0.0000)
  15 Al     0.000000    5.727565   11.431891    ( 0.0000,  0.0000,  0.0000)
  16 Al     4.050000    5.727565   11.431891    ( 0.0000,  0.0000,  0.0000)
  17 Al     8.100000    5.727565   11.431891    ( 0.0000,  0.0000,  0.0000)
  18 Al     2.025000    1.431891   12.863782    ( 0.0000,  0.0000,  0.0000)
  19 Al     6.075000    1.431891   12.863782    ( 0.0000,  0.0000,  0.0000)
  20 Al    10.125000    1.431891   12.863782    ( 0.0000,  0.0000,  0.0000)
  21 Al     2.025000    4.295674   12.863782    ( 0.0000,  0.0000,  0.0000)
  22 Al     6.075000    4.295674   12.863782    ( 0.0000,  0.0000,  0.0000)
  23 Al    10.125000    4.295674   12.863782    ( 0.0000,  0.0000,  0.0000)
  24 Al     2.025000    7.159456   12.863782    ( 0.0000,  0.0000,  0.0000)
  25 Al     6.075000    7.159456   12.863782    ( 0.0000,  0.0000,  0.0000)
  26 Al    10.125000    7.159456   12.863782    ( 0.0000,  0.0000,  0.0000)
  27 Al     0.000000    0.000000   14.295674    ( 0.0000,  0.0000,  0.0000)
  28 Al     4.050000    0.000000   14.295674    ( 0.0000,  0.0000,  0.0000)
  29 Al     8.100000    0.000000   14.295674    ( 0.0000,  0.0000,  0.0000)
  30 Al     0.000000    2.863782   14.295674    ( 0.0000,  0.0000,  0.0000)
  31 Al     4.050000    2.863782   14.295674    ( 0.0000,  0.0000,  0.0000)
  32 Al     8.100000    2.863782   14.295674    ( 0.0000,  0.0000,  0.0000)
  33 Al     0.000000    5.727565   14.295674    ( 0.0000,  0.0000,  0.0000)
  34 Al     4.050000    5.727565   14.295674    ( 0.0000,  0.0000,  0.0000)
  35 Al     8.100000    5.727565   14.295674    ( 0.0000,  0.0000,  0.0000)

Unit cell:
           periodic     x           y           z      points  spacing
  1. axis:    yes   12.150000    0.000000    0.000000    76     0.1599
  2. axis:    yes    0.000000    8.591347    0.000000    52     0.1652
  3. axis:    no     0.000000    0.000000   24.295674   152     0.1598

  Lengths:  12.150000   8.591347  24.295674
  Angles:   90.000000  90.000000  90.000000

Effective grid spacing dv^(1/3) = 0.1616

     iter     time        total  log10-change:
                         energy  eigst   dens
iter:   1 16:06:11  -994.926196
iter:   2 16:09:13  -995.340428  +0.34  -0.88
iter:   3 16:12:14  -994.564853  +0.67  -0.88
iter:   4 16:15:16  -995.295966  +0.43  -1.14
Writing to output.gpw (mode='')

iter:   5 16:18:07  -997.455432  +0.79  -1.17
iter:   6 16:21:05  -994.607647  +0.72  -1.09
iter:   7 16:24:12  -994.895185  +0.05  -1.72
iter:   8 16:27:15  -994.831141  -0.61  -1.57
iter:   9 16:30:08  -994.578206  -1.73  -1.58
Writing to output.gpw (mode='')

iter:  10 16:33:17  -994.534008  -0.50  -1.80
iter:  11 16:36:23  -994.733733  -0.64  -2.03
iter:  12 16:39:33  -994.518276  -1.12  -1.63
iter:  13 16:42:28  -994.496468  -0.76  -1.95
iter:  14 16:45:30  -994.507953c -0.87  -2.23
Writing to output.gpw (mode='')

iter:  15 16:48:34  -994.508063c -1.86  -2.40
iter:  16 16:51:35  -994.506578c -2.58  -2.52
iter:  17 16:54:37  -994.507440c -2.76  -2.72
iter:  18 16:57:31  -994.507129c -3.38  -2.93
iter:  19 17:00:33  -994.507095c -3.49  -3.13
Writing to output.gpw (mode='')

iter:  20 17:03:44  -994.507049c -3.37  -3.22
iter:  21 17:06:47  -994.507044c -4.05  -3.40
iter:  22 17:09:52  -994.507041c -4.19  -3.45
iter:  23 17:12:54  -994.507052c -4.30  -3.46
iter:  24 17:15:54  -994.507136c -4.16  -3.51
Writing to output.gpw (mode='')

iter:  25 17:18:56  -994.507083c -3.90  -3.45
iter:  26 17:21:54  -994.507092c -4.69  -3.50
iter:  27 17:24:58  -994.507550c -3.73  -3.62
iter:  28 17:27:56  -994.507088c -3.53  -3.03
iter:  29 17:31:07  -994.507063c -3.60  -3.50
Writing to output.gpw (mode='')

iter:  30 17:34:06  -994.507074c -3.71  -3.80
iter:  31 17:37:20  -994.507138c -4.71  -3.72
iter:  32 17:40:30  -994.507155c -4.71  -3.84
iter:  33 17:43:34  -994.507106c -4.66  -3.72
iter:  34 17:46:39  -994.507097c -4.70  -4.33c
Writing to output.gpw (mode='')

iter:  35 17:49:46  -994.507124c -5.06  -4.04c
iter:  36 17:52:48  -994.507104c -5.21  -4.05c
iter:  37 17:55:46  -994.507099c -4.77  -4.59c
iter:  38 17:58:51  -994.507103c -6.09  -4.07c
iter:  39 18:01:57  -994.507107c -5.94  -4.19c
Writing to output.gpw (mode='')

iter:  40 18:05:02  -994.507109c -5.94  -4.52c
iter:  41 18:07:59  -994.507105c -6.23  -4.77c
iter:  42 18:11:01  -994.507109c -6.18  -4.49c
iter:  43 18:14:14  -994.507110c -6.40  -5.05c
iter:  44 18:17:19  -994.507108c -7.00  -5.04c
Writing to output.gpw (mode='')

iter:  45 18:20:28  -994.507107c -6.86  -5.32c
iter:  46 18:23:38  -994.507108c -7.26  -5.34c
iter:  47 18:26:51  -994.507108c -7.48c -5.90c

Converged after 47 iterations.

Dipole moment: (-11.228179, -6.862496, -0.000000) |e|*Ang

Energy contributions relative to reference atoms: (reference = -237723.237536)

Kinetic:        +43.950871
Potential:       -7.614832
External:        +0.000000
XC:            -1030.845245
Entropy (-ST):   -0.119200
Local:           +0.061699
--------------------------
Free energy:   -994.566708
Extrapolated:  -994.507108

Dipole-layer corrected work functions: 4.327759, 4.327759 eV

Showing only first 2 kpts
 Kpt  Band  Eigenvalues  Occupancy
  0    52     -4.43333    1.78401
  0    53     -4.35837    1.29692
  0    54     -4.31793    0.90207
  0    55     -4.24466    0.31897

  1    52     -4.58618    1.98868
  1    53     -4.29063    0.64489
  1    54     -4.01364    0.00373
  1    55     -3.94153    0.00088


Fermi level: -4.32776

No gap
Writing to output.gpw (mode='')


Forces in eV/Ang:
  0 Al   -0.00477   -0.00125    0.13382
  1 Al    0.00000    0.00278    0.13586
  2 Al    0.00477   -0.00125    0.13382
  3 Al    0.00523    0.00000    0.13593
  4 Al    0.00000    0.00000    0.13394
  5 Al   -0.00523    0.00000    0.13593
  6 Al   -0.00477    0.00125    0.13382
  7 Al    0.00000   -0.00278    0.13586
  8 Al    0.00477    0.00125    0.13382
  9 Al    0.00000    0.00000   -0.22767
 10 Al   -0.00536    0.00000   -0.22706
 11 Al    0.00536    0.00000   -0.22706
 12 Al    0.00000   -0.00293   -0.22703
 13 Al    0.00476    0.00144   -0.22769
 14 Al   -0.00476    0.00144   -0.22769
 15 Al    0.00000    0.00293   -0.22703
 16 Al    0.00476   -0.00144   -0.22769
 17 Al   -0.00476   -0.00144   -0.22769
 18 Al   -0.00475   -0.00141    0.22769
 19 Al    0.00000    0.00296    0.22704
 20 Al    0.00475   -0.00141    0.22769
 21 Al    0.00536    0.00000    0.22705
 22 Al    0.00000    0.00000    0.22767
 23 Al   -0.00536    0.00000    0.22705
 24 Al   -0.00475    0.00141    0.22769
 25 Al    0.00000   -0.00296    0.22704
 26 Al    0.00475    0.00141    0.22769
 27 Al    0.00000    0.00000   -0.13391
 28 Al   -0.00522    0.00000   -0.13593
 29 Al    0.00522    0.00000   -0.13593
 30 Al    0.00000   -0.00277   -0.13585
 31 Al    0.00478    0.00126   -0.13383
 32 Al   -0.00478    0.00126   -0.13383
 33 Al    0.00000    0.00277   -0.13585
 34 Al    0.00478   -0.00126   -0.13383
 35 Al   -0.00478   -0.00126   -0.13383

System changes: positions 

Initializing position-dependent things.

Density initialized from wave functions
      .-----------------------------.  
     /|                             |  
    / |                             |  
   /  |                             |  
  /   |                             |  
 *    |                             |  
 |    |                             |  
 |    |                             |  
 |    |                             |  
 |    |                             |  
 |    |                             |  
 |    |                             |  
 |    |                             |  
 |    |                             |  
 |  Al|       Al        Al          |  
 |    |   Al        Al        Al    |  
 | Al |      Al        Al           |  
 Al   |  AlAl      AlAl     Al      |  
 |  Al|Al Al  Al Al Al  Al Al Al    |  
 | Al |      Al        Al           |  
 |    |  Al        Al       Al      |  
 Al   |    Al        Al             |  
 |    |Al        Al        Al       |  
 |    |                             |  
 |    |                             |  
 |    |                             |  
 |    |                             |  
 |    |                             |  
 |    |                             |  
 |    |                             |  
 |    .-----------------------------.  
 |   /                             /   
 |  /                             /    
 | /                             /     
 |/                             /      
 *-----------------------------*       

Positions:
   0 Al     2.025000    1.431891   10.000000    ( 0.0000,  0.0000,  0.0000)
   1 Al     6.075000    1.431891   10.000000    ( 0.0000,  0.0000,  0.0000)
   2 Al    10.125000    1.431891   10.000000    ( 0.0000,  0.0000,  0.0000)
   3 Al     2.025000    4.295674   10.000000    ( 0.0000,  0.0000,  0.0000)
   4 Al     6.075000    4.295674   10.000000    ( 0.0000,  0.0000,  0.0000)
   5 Al    10.125000    4.295674   10.000000    ( 0.0000,  0.0000,  0.0000)
   6 Al     2.025000    7.159456   10.000000    ( 0.0000,  0.0000,  0.0000)
   7 Al     6.075000    7.159456   10.000000    ( 0.0000,  0.0000,  0.0000)
   8 Al    10.125000    7.159456   10.000000    ( 0.0000,  0.0000,  0.0000)
   9 Al     0.000000    0.000000   11.431891    ( 0.0000,  0.0000,  0.0000)
  10 Al     4.050000    0.000000   11.431891    ( 0.0000,  0.0000,  0.0000)
  11 Al     8.100000    0.000000   11.431891    ( 0.0000,  0.0000,  0.0000)
  12 Al     0.000000    2.863782   11.431891    ( 0.0000,  0.0000,  0.0000)
  13 Al     4.050000    2.863782   11.431891    ( 0.0000,  0.0000,  0.0000)
  14 Al     8.100000    2.863782   11.431891    ( 0.0000,  0.0000,  0.0000)
  15 Al     0.000000    5.727565   11.431891    ( 0.0000,  0.0000,  0.0000)
  16 Al     4.050000    5.727565   11.431891    ( 0.0000,  0.0000,  0.0000)
  17 Al     8.100000    5.727565   11.431891    ( 0.0000,  0.0000,  0.0000)
  18 Al     2.024932    1.431871   12.867035    ( 0.0000,  0.0000,  0.0000)
  19 Al     6.075000    1.431933   12.867026    ( 0.0000,  0.0000,  0.0000)
  20 Al    10.125068    1.431871   12.867035    ( 0.0000,  0.0000,  0.0000)
  21 Al     2.025077    4.295674   12.867026    ( 0.0000,  0.0000,  0.0000)
  22 Al     6.075000    4.295674   12.867035    ( 0.0000,  0.0000,  0.0000)
  23 Al    10.124923    4.295674   12.867026    ( 0.0000,  0.0000,  0.0000)
  24 Al     2.024932    7.159476   12.867035    ( 0.0000,  0.0000,  0.0000)
  25 Al     6.075000    7.159414   12.867026    ( 0.0000,  0.0000,  0.0000)
  26 Al    10.125068    7.159476   12.867035    ( 0.0000,  0.0000,  0.0000)
  27 Al     0.000000    0.000000   14.293761    ( 0.0000,  0.0000,  0.0000)
  28 Al     4.049925    0.000000   14.293732    ( 0.0000,  0.0000,  0.0000)
  29 Al     8.100075    0.000000   14.293732    ( 0.0000,  0.0000,  0.0000)
  30 Al     0.000000    2.863743   14.293733    ( 0.0000,  0.0000,  0.0000)
  31 Al     4.050068    2.863800   14.293762    ( 0.0000,  0.0000,  0.0000)
  32 Al     8.099932    2.863800   14.293762    ( 0.0000,  0.0000,  0.0000)
  33 Al     0.000000    5.727604   14.293733    ( 0.0000,  0.0000,  0.0000)
  34 Al     4.050068    5.727547   14.293762    ( 0.0000,  0.0000,  0.0000)
  35 Al     8.099932    5.727547   14.293762    ( 0.0000,  0.0000,  0.0000)

Unit cell:
           periodic     x           y           z      points  spacing
  1. axis:    yes   12.150000    0.000000    0.000000    76     0.1599
  2. axis:    yes    0.000000    8.591347    0.000000    52     0.1652
  3. axis:    no     0.000000    0.000000   24.295674   152     0.1598

  Lengths:  12.150000   8.591347  24.295674
  Angles:   90.000000  90.000000  90.000000

Effective grid spacing dv^(1/3) = 0.1616

     iter     time        total  log10-change:
                         energy  eigst   dens
iter:   1 18:30:39  -994.521193  -2.22
iter:   2 18:33:44  -994.515982  -3.42  -2.49
iter:   3 18:36:43  -994.515734c -2.25  -2.86
iter:   4 18:39:47  -994.515758c -3.91  -3.24
Writing to output.gpw (mode='')

iter:   5 18:42:51  -994.515814c -3.27  -3.30
iter:   6 18:45:53  -994.515817c -3.73  -3.64
iter:   7 18:48:55  -994.515756c -4.08  -3.53
iter:   8 18:52:08  -994.515788c -4.31  -3.57
iter:   9 18:55:28  -994.515779c -5.01  -3.89
Writing to output.gpw (mode='')

iter:  10 18:58:37  -994.515771c -4.44  -4.03c
iter:  11 19:01:48  -994.515798c -4.43  -3.81
iter:  12 19:05:04  -994.515780c -5.48  -3.95
iter:  13 19:08:17  -994.515778c -5.60  -4.48c
iter:  14 19:11:18  -994.515775c -5.47  -4.59c
Writing to output.gpw (mode='')

iter:  15 19:14:19  -994.515775c -5.87  -4.40c
iter:  16 19:17:29  -994.515780c -6.14  -4.34c
iter:  17 19:20:30  -994.515783c -5.81  -4.61c
iter:  18 19:23:33  -994.515781c -6.57  -4.56c
iter:  19 19:26:38  -994.515773c -5.95  -4.67c
Writing to output.gpw (mode='')

iter:  20 19:29:46  -994.515780c -5.63  -4.27c
iter:  21 19:32:58  -994.515779c -6.51  -5.01c
iter:  22 19:36:05  -994.515779c -6.79  -5.32c
iter:  23 19:39:24  -994.515779c -7.14  -5.31c
iter:  24 19:42:32  -994.515778c -7.30  -5.38c
Writing to output.gpw (mode='')

iter:  25 19:45:38  -994.515779c -7.09  -5.24c
iter:  26 19:48:44  -994.515779c -7.41c -5.62c

Converged after 26 iterations.

Dipole moment: (-11.228533, -6.862258, 0.000075) |e|*Ang

Energy contributions relative to reference atoms: (reference = -237723.237536)

Kinetic:        +44.086534
Potential:       -7.715706
External:        +0.000000
XC:            -1030.888363
Entropy (-ST):   -0.119227
Local:           +0.061369
--------------------------
Free energy:   -994.575392
Extrapolated:  -994.515779

Dipole-layer corrected work functions: 4.329429, 4.329299 eV

Showing only first 2 kpts
 Kpt  Band  Eigenvalues  Occupancy
  0    52     -4.43589    1.78769
  0    53     -4.35884    1.28650
  0    54     -4.31865    0.89322
  0    55     -4.25040    0.34182

  1    52     -4.58661    1.98841
  1    53     -4.29125    0.63629
  1    54     -4.01942    0.00405
  1    55     -3.94171    0.00086


Fermi level: -4.32936

No gap
Writing to output.gpw (mode='')


Forces in eV/Ang:
  0 Al   -0.00478   -0.00125    0.13726
  1 Al    0.00000    0.00277    0.13928
  2 Al    0.00478   -0.00125    0.13726
  3 Al    0.00519    0.00000    0.13933
  4 Al    0.00000    0.00000    0.13741
  5 Al   -0.00519    0.00000    0.13933
  6 Al   -0.00478    0.00125    0.13726
  7 Al    0.00000   -0.00277    0.13928
  8 Al    0.00478    0.00125    0.13726
  9 Al    0.00000    0.00000   -0.22720
 10 Al   -0.00536    0.00000   -0.22638
 11 Al    0.00536    0.00000   -0.22638
 12 Al    0.00000   -0.00283   -0.22643
 13 Al    0.00476    0.00137   -0.22707
 14 Al   -0.00476    0.00137   -0.22707
 15 Al    0.00000    0.00283   -0.22643
 16 Al    0.00476   -0.00137   -0.22707
 17 Al   -0.00476   -0.00137   -0.22707
 18 Al   -0.00441   -0.00124    0.21278
 19 Al    0.00000    0.00258    0.21283
 20 Al    0.00441   -0.00124    0.21278
 21 Al    0.00512    0.00000    0.21290
 22 Al    0.00000    0.00000    0.21265
 23 Al   -0.00512    0.00000    0.21290
 24 Al   -0.00441    0.00124    0.21278
 25 Al    0.00000   -0.00258    0.21283
 26 Al    0.00441    0.00124    0.21278
 27 Al    0.00000    0.00000   -0.12326
 28 Al   -0.00469    0.00000   -0.12559
 29 Al    0.00469    0.00000   -0.12559
 30 Al    0.00000   -0.00225   -0.12551
 31 Al    0.00443    0.00098   -0.12321
 32 Al   -0.00443    0.00098   -0.12321
 33 Al    0.00000    0.00225   -0.12551
 34 Al    0.00443   -0.00098   -0.12321
 35 Al   -0.00443   -0.00098   -0.12321

System changes: positions 

Initializing position-dependent things.

Density initialized from wave functions
      .-----------------------------.  
     /|                             |  
    / |                             |  
   /  |                             |  
  /   |                             |  
 *    |                             |  
 |    |                             |  
 |    |                             |  
 |    |                             |  
 |    |                             |  
 |    |                             |  
 |    |                             |  
 |    |                             |  
 |    |                             |  
 |  Al|       Al        Al          |  
 |    |   Al        Al        Al    |  
 | Al |      Al        Al           |  
 Al   |  AlAl      AlAl     Al      |  
 |  Al|Al Al  Al Al Al  Al Al Al    |  
 | Al |      Al        Al           |  
 |    |  Al        Al       Al      |  
 Al   |    Al        Al             |  
 |    |Al        Al        Al       |  
 |    |                             |  
 |    |                             |  
 |    |                             |  
 |    |                             |  
 |    |                             |  
 |    |                             |  
 |    |                             |  
 |    .-----------------------------.  
 |   /                             /   
 |  /                             /    
 | /                             /     
 |/                             /      
 *-----------------------------*       

Positions:
   0 Al     2.025000    1.431891   10.000000    ( 0.0000,  0.0000,  0.0000)
   1 Al     6.075000    1.431891   10.000000    ( 0.0000,  0.0000,  0.0000)
   2 Al    10.125000    1.431891   10.000000    ( 0.0000,  0.0000,  0.0000)
   3 Al     2.025000    4.295674   10.000000    ( 0.0000,  0.0000,  0.0000)
   4 Al     6.075000    4.295674   10.000000    ( 0.0000,  0.0000,  0.0000)
   5 Al    10.125000    4.295674   10.000000    ( 0.0000,  0.0000,  0.0000)
   6 Al     2.025000    7.159456   10.000000    ( 0.0000,  0.0000,  0.0000)
   7 Al     6.075000    7.159456   10.000000    ( 0.0000,  0.0000,  0.0000)
   8 Al    10.125000    7.159456   10.000000    ( 0.0000,  0.0000,  0.0000)
   9 Al     0.000000    0.000000   11.431891    ( 0.0000,  0.0000,  0.0000)
  10 Al     4.050000    0.000000   11.431891    ( 0.0000,  0.0000,  0.0000)
  11 Al     8.100000    0.000000   11.431891    ( 0.0000,  0.0000,  0.0000)
  12 Al     0.000000    2.863782   11.431891    ( 0.0000,  0.0000,  0.0000)
  13 Al     4.050000    2.863782   11.431891    ( 0.0000,  0.0000,  0.0000)
  14 Al     8.100000    2.863782   11.431891    ( 0.0000,  0.0000,  0.0000)
  15 Al     0.000000    5.727565   11.431891    ( 0.0000,  0.0000,  0.0000)
  16 Al     4.050000    5.727565   11.431891    ( 0.0000,  0.0000,  0.0000)
  17 Al     8.100000    5.727565   11.431891    ( 0.0000,  0.0000,  0.0000)
  18 Al     2.024725    1.431813   12.877026    ( 0.0000,  0.0000,  0.0000)
  19 Al     6.075000    1.432055   12.877020    ( 0.0000,  0.0000,  0.0000)
  20 Al    10.125275    1.431813   12.877026    ( 0.0000,  0.0000,  0.0000)
  21 Al     2.025317    4.295674   12.877023    ( 0.0000,  0.0000,  0.0000)
  22 Al     6.075000    4.295674   12.877020    ( 0.0000,  0.0000,  0.0000)
  23 Al    10.124683    4.295674   12.877023    ( 0.0000,  0.0000,  0.0000)
  24 Al     2.024725    7.159535   12.877026    ( 0.0000,  0.0000,  0.0000)
  25 Al     6.075000    7.159293   12.877020    ( 0.0000,  0.0000,  0.0000)
  26 Al    10.125275    7.159535   12.877026    ( 0.0000,  0.0000,  0.0000)
  27 Al    -0.000000   -0.000000   14.287973    ( 0.0000,  0.0000,  0.0000)
  28 Al     4.049705    0.000000   14.287834    ( 0.0000,  0.0000,  0.0000)
  29 Al     8.100295   -0.000000   14.287834    ( 0.0000,  0.0000,  0.0000)
  30 Al     0.000000    2.863637   14.287840    ( 0.0000,  0.0000,  0.0000)
  31 Al     4.050276    2.863847   14.287976    ( 0.0000,  0.0000,  0.0000)
  32 Al     8.099724    2.863847   14.287976    ( 0.0000,  0.0000,  0.0000)
  33 Al     0.000000    5.727710   14.287840    ( 0.0000,  0.0000,  0.0000)
  34 Al     4.050276    5.727501   14.287976    ( 0.0000,  0.0000,  0.0000)
  35 Al     8.099724    5.727501   14.287976    ( 0.0000,  0.0000,  0.0000)

Unit cell:
           periodic     x           y           z      points  spacing
  1. axis:    yes   12.150000    0.000000    0.000000    76     0.1599
  2. axis:    yes    0.000000    8.591347    0.000000    52     0.1652
  3. axis:    no     0.000000    0.000000   24.295674   152     0.1598

  Lengths:  12.150000   8.591347  24.295674
  Angles:   90.000000  90.000000  90.000000

Effective grid spacing dv^(1/3) = 0.1616

     iter     time        total  log10-change:
                         energy  eigst   dens
iter:   1 19:52:26  -994.589441  -1.25
iter:   2 19:55:36  -994.540879  -2.45  -2.01
iter:   3 19:58:39  -994.538354c -1.29  -2.37
iter:   4 20:01:52  -994.538512c -2.93  -2.75
Writing to output.gpw (mode='')

iter:   5 20:04:57  -994.538762c -2.28  -2.81
iter:   6 20:08:14  -994.538944c -2.76  -3.14
iter:   7 20:11:24  -994.538565c -3.09  -3.04
iter:   8 20:14:21  -994.538590c -3.32  -3.06
iter:   9 20:17:25  -994.538534c -4.05  -3.42
Writing to output.gpw (mode='')

iter:  10 20:20:37  -994.538579c -3.45  -3.55
iter:  11 20:23:41  -994.538661c -3.42  -3.30
iter:  12 20:26:43  -994.538558c -4.51  -3.49
iter:  13 20:29:45  -994.538546c -4.62  -3.97
iter:  14 20:33:00  -994.538539c -4.62  -4.12c
Writing to output.gpw (mode='')

iter:  15 20:36:05  -994.538539c -4.90  -3.96
iter:  16 20:39:12  -994.538557c -5.17  -3.91
iter:  17 20:42:25  -994.538566c -5.05  -4.18c
iter:  18 20:45:35  -994.538560c -5.63  -4.18c
iter:  19 20:48:37  -994.538539c -5.40  -4.26c
Writing to output.gpw (mode='')

iter:  20 20:51:44  -994.538561c -4.93  -4.02c
iter:  21 20:54:48  -994.538556c -5.87  -4.52c
iter:  22 20:58:03  -994.538561c -5.62  -4.68c
iter:  23 21:01:03  -994.538557c -6.06  -4.45c
iter:  24 21:04:02  -994.538550c -6.03  -4.62c
Writing to output.gpw (mode='')

iter:  25 21:07:08  -994.538555c -6.33  -4.78c
iter:  26 21:10:15  -994.538555c -6.42  -5.02c
iter:  27 21:13:23  -994.538552c -6.58  -4.97c
iter:  28 21:16:15  -994.538553c -6.98  -5.20c
iter:  29 21:19:24  -994.538554c -7.00  -5.32c
Writing to output.gpw (mode='')

iter:  30 21:22:33  -994.538554c -7.05  -5.46c
iter:  31 21:25:39  -994.538554c -7.30  -5.57c
iter:  32 21:28:40  -994.538554c -7.34  -5.58c
iter:  33 21:31:39  -994.538554c -7.71c -5.63c

Converged after 33 iterations.

Dipole moment: (-11.229657, -6.861516, 0.000286) |e|*Ang

Energy contributions relative to reference atoms: (reference = -237723.237536)

Kinetic:        +44.524275
Potential:       -8.042246
External:        +0.000000
XC:            -1031.021841
Entropy (-ST):   -0.119373
Local:           +0.060945
--------------------------
Free energy:   -994.598240
Extrapolated:  -994.538554

Dipole-layer corrected work functions: 4.334787, 4.334291 eV

Showing only first 2 kpts
 Kpt  Band  Eigenvalues  Occupancy
  0    52     -4.44375    1.79764
  0    53     -4.36031    1.25214
  0    54     -4.32107    0.86615
  0    55     -4.26792    0.41753

  1    52     -4.58808    1.98752
  1    53     -4.29331    0.60954
  1    54     -4.03701    0.00520
  1    55     -3.94248    0.00079


Fermi level: -4.33454

No gap
Writing to output.gpw (mode='')


Forces in eV/Ang:
  0 Al   -0.00478   -0.00127    0.14718
  1 Al    0.00000    0.00281    0.14915
  2 Al    0.00478   -0.00127    0.14718
  3 Al    0.00518    0.00000    0.14922
  4 Al    0.00000    0.00000    0.14732
  5 Al   -0.00518    0.00000    0.14922
  6 Al   -0.00478    0.00127    0.14718
  7 Al    0.00000   -0.00281    0.14915
  8 Al    0.00478    0.00127    0.14718
  9 Al    0.00000    0.00000   -0.22613
 10 Al   -0.00544    0.00000   -0.22461
 11 Al    0.00544    0.00000   -0.22461
 12 Al    0.00000   -0.00249   -0.22484
 13 Al    0.00472    0.00120   -0.22548
 14 Al   -0.00472    0.00120   -0.22548
 15 Al    0.00000    0.00249   -0.22484
 16 Al    0.00472   -0.00120   -0.22548
 17 Al   -0.00472   -0.00120   -0.22548
 18 Al   -0.00298   -0.00030    0.16793
 19 Al    0.00000    0.00101    0.17003
 20 Al    0.00298   -0.00030    0.16793
 21 Al    0.00354    0.00000    0.17034
 22 Al    0.00000    0.00000    0.16761
 23 Al   -0.00354    0.00000    0.17034
 24 Al   -0.00298    0.00030    0.16793
 25 Al    0.00000   -0.00101    0.17003
 26 Al    0.00298    0.00030    0.16793
 27 Al    0.00000    0.00000   -0.08975
 28 Al   -0.00306    0.00000   -0.09329
 29 Al    0.00306    0.00000   -0.09329
 30 Al    0.00000   -0.00067   -0.09315
 31 Al    0.00295    0.00015   -0.09037
 32 Al   -0.00295    0.00015   -0.09037
 33 Al    0.00000    0.00067   -0.09315
 34 Al    0.00295   -0.00015   -0.09037
 35 Al   -0.00295   -0.00015   -0.09037

System changes: positions 

Initializing position-dependent things.

Density initialized from wave functions
      .-----------------------------.  
     /|                             |  
    / |                             |  
   /  |                             |  
  /   |                             |  
 *    |                             |  
 |    |                             |  
 |    |                             |  
 |    |                             |  
 |    |                             |  
 |    |                             |  
 |    |                             |  
 |    |                             |  
 |    |                             |  
 |  Al|       Al        Al          |  
 |    |   Al        Al        Al    |  
 | Al |      Al        Al           |  
 Al   |  AlAl      AlAl     Al      |  
 |  Al|Al Al  Al Al Al  Al Al Al    |  
 | Al |      Al        Al           |  
 |    |  Al        Al       Al      |  
 Al   |    Al        Al             |  
 |    |Al        Al        Al       |  
 |    |                             |  
 |    |                             |  
 |    |                             |  
 |    |                             |  
 |    |                             |  
 |    |                             |  
 |    |                             |  
 |    .-----------------------------.  
 |   /                             /   
 |  /                             /    
 | /                             /     
 |/                             /      
 *-----------------------------*       

Positions:
   0 Al     2.025000    1.431891   10.000000    ( 0.0000,  0.0000,  0.0000)
   1 Al     6.075000    1.431891   10.000000    ( 0.0000,  0.0000,  0.0000)
   2 Al    10.125000    1.431891   10.000000    ( 0.0000,  0.0000,  0.0000)
   3 Al     2.025000    4.295674   10.000000    ( 0.0000,  0.0000,  0.0000)
   4 Al     6.075000    4.295674   10.000000    ( 0.0000,  0.0000,  0.0000)
   5 Al    10.125000    4.295674   10.000000    ( 0.0000,  0.0000,  0.0000)
   6 Al     2.025000    7.159456   10.000000    ( 0.0000,  0.0000,  0.0000)
   7 Al     6.075000    7.159456   10.000000    ( 0.0000,  0.0000,  0.0000)
   8 Al    10.125000    7.159456   10.000000    ( 0.0000,  0.0000,  0.0000)
   9 Al     0.000000    0.000000   11.431891    ( 0.0000,  0.0000,  0.0000)
  10 Al     4.050000    0.000000   11.431891    ( 0.0000,  0.0000,  0.0000)
  11 Al     8.100000    0.000000   11.431891    ( 0.0000,  0.0000,  0.0000)
  12 Al     0.000000    2.863782   11.431891    ( 0.0000,  0.0000,  0.0000)
  13 Al     4.050000    2.863782   11.431891    ( 0.0000,  0.0000,  0.0000)
  14 Al     8.100000    2.863782   11.431891    ( 0.0000,  0.0000,  0.0000)
  15 Al     0.000000    5.727565   11.431891    ( 0.0000,  0.0000,  0.0000)
  16 Al     4.050000    5.727565   11.431891    ( 0.0000,  0.0000,  0.0000)
  17 Al     8.100000    5.727565   11.431891    ( 0.0000,  0.0000,  0.0000)
  18 Al     2.024528    1.431767   12.886976    ( 0.0000,  0.0000,  0.0000)
  19 Al     6.075000    1.432156   12.887009    ( 0.0000,  0.0000,  0.0000)
  20 Al    10.125472    1.431767   12.886976    ( 0.0000,  0.0000,  0.0000)
  21 Al     2.025548    4.295674   12.887020    ( 0.0000,  0.0000,  0.0000)
  22 Al     6.075000    4.295674   12.886960    ( 0.0000,  0.0000,  0.0000)
  23 Al    10.124452    4.295674   12.887020    ( 0.0000,  0.0000,  0.0000)
  24 Al     2.024528    7.159580   12.886976    ( 0.0000,  0.0000,  0.0000)
  25 Al     6.075000    7.159191   12.887009    ( 0.0000,  0.0000,  0.0000)
  26 Al    10.125472    7.159580   12.886976    ( 0.0000,  0.0000,  0.0000)
  27 Al    -0.000000   -0.000000   14.282346    ( 0.0000,  0.0000,  0.0000)
  28 Al     4.049498    0.000000   14.282068    ( 0.0000,  0.0000,  0.0000)
  29 Al     8.100502   -0.000000   14.282068    ( 0.0000,  0.0000,  0.0000)
  30 Al    -0.000000    2.863552   14.282078    ( 0.0000,  0.0000,  0.0000)
  31 Al     4.050473    2.863881   14.282339    ( 0.0000,  0.0000,  0.0000)
  32 Al     8.099527    2.863881   14.282339    ( 0.0000,  0.0000,  0.0000)
  33 Al     0.000000    5.727795   14.282078    ( 0.0000,  0.0000,  0.0000)
  34 Al     4.050473    5.727466   14.282339    ( 0.0000,  0.0000,  0.0000)
  35 Al     8.099527    5.727466   14.282339    ( 0.0000,  0.0000,  0.0000)

Unit cell:
           periodic     x           y           z      points  spacing
  1. axis:    yes   12.150000    0.000000    0.000000    76     0.1599
  2. axis:    yes    0.000000    8.591347    0.000000    52     0.1652
  3. axis:    no     0.000000    0.000000   24.295674   152     0.1598

  Lengths:  12.150000   8.591347  24.295674
  Angles:   90.000000  90.000000  90.000000

Effective grid spacing dv^(1/3) = 0.1616

     iter     time        total  log10-change:
                         energy  eigst   dens
iter:   1 21:35:29  -994.605368  -1.26
iter:   2 21:38:31  -994.557728  -2.44  -2.01
iter:   3 21:41:43  -994.555229c -1.29  -2.38
iter:   4 21:45:02  -994.555490c -2.92  -2.75
Writing to output.gpw (mode='')

iter:   5 21:48:14  -994.555809c -2.28  -2.81
iter:   6 21:51:17  -994.555932c -2.77  -3.14
iter:   7 21:54:13  -994.555499c -3.09  -3.03
iter:   8 21:57:17  -994.555586c -3.32  -3.06
iter:   9 22:00:27  -994.555528c -4.06  -3.43
Writing to output.gpw (mode='')

iter:  10 22:03:43  -994.555545c -3.47  -3.55
iter:  11 22:06:40  -994.555668c -3.40  -3.29
iter:  12 22:09:58  -994.555548c -4.50  -3.49
iter:  13 22:13:05  -994.555532c -4.63  -3.97
iter:  14 22:16:15  -994.555524c -4.72  -4.12c
Writing to output.gpw (mode='')

iter:  15 22:19:25  -994.555522c -4.90  -3.98
iter:  16 22:22:45  -994.555538c -5.20  -3.96
iter:  17 22:25:54  -994.555555c -5.06  -4.18c
iter:  18 22:29:00  -994.555547c -5.61  -4.19c
iter:  19 22:31:59  -994.555527c -5.41  -4.29c
Writing to output.gpw (mode='')

iter:  20 22:35:12  -994.555554c -5.15  -4.24c
iter:  21 22:38:21  -994.555548c -5.90  -4.27c
iter:  22 22:41:30  -994.555553c -5.80  -4.38c
iter:  23 22:44:36  -994.555541c -6.01  -4.29c
iter:  24 22:47:43  -994.555534c -5.78  -4.72c
Writing to output.gpw (mode='')

iter:  25 22:50:50  -994.555542c -6.24  -4.67c
iter:  26 22:53:59  -994.555539c -6.67  -4.89c
iter:  27 22:57:02  -994.555534c -6.35  -5.11c
iter:  28 23:00:17  -994.555538c -6.77  -4.69c
iter:  29 23:03:40  -994.555540c -6.57  -5.04c
Writing to output.gpw (mode='')

iter:  30 23:06:58  -994.555541c -6.99  -5.39c
iter:  31 23:10:02  -994.555539c -7.21  -5.34c
iter:  32 23:13:01  -994.555539c -7.26  -5.49c
iter:  33 23:16:03  -994.555541c -7.34  -5.41c
iter:  34 23:19:10  -994.555540c -7.67c -5.43c

Converged after 34 iterations.

Dipole moment: (-11.230832, -6.860766, 0.000623) |e|*Ang

Energy contributions relative to reference atoms: (reference = -237723.237536)

Kinetic:        +44.994903
Potential:       -8.394233
External:        +0.000000
XC:            -1031.156973
Entropy (-ST):   -0.119554
Local:           +0.060541
--------------------------
Free energy:   -994.615318
Extrapolated:  -994.555540

Dipole-layer corrected work functions: 4.340335, 4.339255 eV

Showing only first 2 kpts
 Kpt  Band  Eigenvalues  Occupancy
  0    52     -4.45133    1.80594
  0    53     -4.36159    1.21457
  0    54     -4.32356    0.83910
  0    55     -4.28494    0.50055

  1    52     -4.58957    1.98655
  1    53     -4.29530    0.58225
  1    54     -4.05412    0.00658
  1    55     -3.94331    0.00072


Fermi level: -4.33979

No gap
Writing to output.gpw (mode='')


Forces in eV/Ang:
  0 Al   -0.00479   -0.00127    0.15678
  1 Al    0.00000    0.00282    0.15875
  2 Al    0.00479   -0.00127    0.15678
  3 Al    0.00515    0.00000    0.15883
  4 Al    0.00000    0.00000    0.15693
  5 Al   -0.00515    0.00000    0.15883
  6 Al   -0.00479    0.00127    0.15678
  7 Al    0.00000   -0.00282    0.15875
  8 Al    0.00479    0.00127    0.15678
  9 Al    0.00000    0.00000   -0.22525
 10 Al   -0.00548    0.00000   -0.22320
 11 Al    0.00548    0.00000   -0.22320
 12 Al    0.00000   -0.00214   -0.22362
 13 Al    0.00467    0.00103   -0.22417
 14 Al   -0.00467    0.00103   -0.22417
 15 Al    0.00000    0.00214   -0.22362
 16 Al    0.00467   -0.00103   -0.22417
 17 Al   -0.00467   -0.00103   -0.22417
 18 Al   -0.00068    0.00085    0.12407
 19 Al    0.00000   -0.00107    0.12719
 20 Al    0.00068    0.00085    0.12407
 21 Al    0.00114    0.00000    0.12770
 22 Al    0.00000    0.00000    0.12291
 23 Al   -0.00114    0.00000    0.12770
 24 Al   -0.00068   -0.00085    0.12407
 25 Al    0.00000    0.00107    0.12719
 26 Al    0.00068   -0.00085    0.12407
 27 Al    0.00000    0.00000   -0.05601
 28 Al   -0.00138    0.00000   -0.06127
 29 Al    0.00138    0.00000   -0.06127
 30 Al    0.00000    0.00066   -0.06062
 31 Al    0.00121   -0.00063   -0.05777
 32 Al   -0.00121   -0.00063   -0.05777
 33 Al    0.00000   -0.00066   -0.06062
 34 Al    0.00121    0.00063   -0.05777
 35 Al   -0.00121    0.00063   -0.05777

System changes: positions 

Initializing position-dependent things.

Density initialized from wave functions
      .-----------------------------.  
     /|                             |  
    / |                             |  
   /  |                             |  
  /   |                             |  
 *    |                             |  
 |    |                             |  
 |    |                             |  
 |    |                             |  
 |    |                             |  
 |    |                             |  
 |    |                             |  
 |    |                             |  
 |    |                             |  
 |  Al|       Al        Al          |  
 |    |   Al        Al        Al    |  
 | Al |      Al        Al           |  
 Al   |  AlAl      AlAl     Al      |  
 |  Al|Al Al  Al Al Al  Al Al Al    |  
 | Al |      Al        Al           |  
 |    |  Al        Al       Al      |  
 Al   |    Al        Al             |  
 |    |Al        Al        Al       |  
 |    |                             |  
 |    |                             |  
 |    |                             |  
 |    |                             |  
 |    |                             |  
 |    |                             |  
 |    |                             |  
 |    .-----------------------------.  
 |   /                             /   
 |  /                             /    
 | /                             /     
 |/                             /      
 *-----------------------------*       

Positions:
   0 Al     2.025000    1.431891   10.000000    ( 0.0000,  0.0000,  0.0000)
   1 Al     6.075000    1.431891   10.000000    ( 0.0000,  0.0000,  0.0000)
   2 Al    10.125000    1.431891   10.000000    ( 0.0000,  0.0000,  0.0000)
   3 Al     2.025000    4.295674   10.000000    ( 0.0000,  0.0000,  0.0000)
   4 Al     6.075000    4.295674   10.000000    ( 0.0000,  0.0000,  0.0000)
   5 Al    10.125000    4.295674   10.000000    ( 0.0000,  0.0000,  0.0000)
   6 Al     2.025000    7.159456   10.000000    ( 0.0000,  0.0000,  0.0000)
   7 Al     6.075000    7.159456   10.000000    ( 0.0000,  0.0000,  0.0000)
   8 Al    10.125000    7.159456   10.000000    ( 0.0000,  0.0000,  0.0000)
   9 Al     0.000000    0.000000   11.431891    ( 0.0000,  0.0000,  0.0000)
  10 Al     4.050000    0.000000   11.431891    ( 0.0000,  0.0000,  0.0000)
  11 Al     8.100000    0.000000   11.431891    ( 0.0000,  0.0000,  0.0000)
  12 Al     0.000000    2.863782   11.431891    ( 0.0000,  0.0000,  0.0000)
  13 Al     4.050000    2.863782   11.431891    ( 0.0000,  0.0000,  0.0000)
  14 Al     8.100000    2.863782   11.431891    ( 0.0000,  0.0000,  0.0000)
  15 Al     0.000000    5.727565   11.431891    ( 0.0000,  0.0000,  0.0000)
  16 Al     4.050000    5.727565   11.431891    ( 0.0000,  0.0000,  0.0000)
  17 Al     8.100000    5.727565   11.431891    ( 0.0000,  0.0000,  0.0000)
  18 Al     2.024362    1.431743   12.896890    ( 0.0000,  0.0000,  0.0000)
  19 Al     6.075000    1.432222   12.896993    ( 0.0000,  0.0000,  0.0000)
  20 Al    10.125638    1.431743   12.896890    ( 0.0000,  0.0000,  0.0000)
  21 Al     2.025748    4.295674   12.897018    ( 0.0000,  0.0000,  0.0000)
  22 Al     6.075000    4.295674   12.896846    ( 0.0000,  0.0000,  0.0000)
  23 Al    10.124252    4.295674   12.897018    ( 0.0000,  0.0000,  0.0000)
  24 Al     2.024362    7.159604   12.896890    ( 0.0000,  0.0000,  0.0000)
  25 Al     6.075000    7.159125   12.896993    ( 0.0000,  0.0000,  0.0000)
  26 Al    10.125638    7.159604   12.896890    ( 0.0000,  0.0000,  0.0000)
  27 Al    -0.000000    0.000000   14.276943    ( 0.0000,  0.0000,  0.0000)
  28 Al     4.049308    0.000000   14.276473    ( 0.0000,  0.0000,  0.0000)
  29 Al     8.100692   -0.000000   14.276473    ( 0.0000,  0.0000,  0.0000)
  30 Al    -0.000000    2.863490   14.276499    ( 0.0000,  0.0000,  0.0000)
  31 Al     4.050651    2.863901   14.276901    ( 0.0000,  0.0000,  0.0000)
  32 Al     8.099349    2.863901   14.276901    ( 0.0000,  0.0000,  0.0000)
  33 Al     0.000000    5.727857   14.276499    ( 0.0000,  0.0000,  0.0000)
  34 Al     4.050651    5.727446   14.276901    ( 0.0000,  0.0000,  0.0000)
  35 Al     8.099349    5.727446   14.276901    ( 0.0000,  0.0000,  0.0000)

Unit cell:
           periodic     x           y           z      points  spacing
  1. axis:    yes   12.150000    0.000000    0.000000    76     0.1599
  2. axis:    yes    0.000000    8.591347    0.000000    52     0.1652
  3. axis:    no     0.000000    0.000000   24.295674   152     0.1598

  Lengths:  12.150000   8.591347  24.295674
  Angles:   90.000000  90.000000  90.000000

Effective grid spacing dv^(1/3) = 0.1616

     iter     time        total  log10-change:
                         energy  eigst   dens
iter:   1 23:22:58  -994.615762  -1.27
iter:   2 23:26:24  -994.568972  -2.44  -2.02
iter:   3 23:29:25  -994.566523c -1.30  -2.38
iter:   4 23:32:22  -994.566889c -2.92  -2.75
Writing to output.gpw (mode='')

iter:   5 23:35:28  -994.567253c -2.27  -2.81
iter:   6 23:38:36  -994.567313c -2.77  -3.14
iter:   7 23:41:35  -994.566831c -3.08  -3.03
iter:   8 23:44:35  -994.566974c -3.32  -3.07
iter:   9 23:47:51  -994.566919c -4.07  -3.46
Writing to output.gpw (mode='')

iter:  10 23:50:56  -994.566901c -3.51  -3.56
iter:  11 23:53:52  -994.567076c -3.40  -3.29
iter:  12 23:56:57  -994.566936c -4.48  -3.49
iter:  13 00:00:04  -994.566916c -4.61  -3.96
iter:  14 00:03:11  -994.566911c -4.80  -4.13c
Writing to output.gpw (mode='')

iter:  15 00:06:23  -994.566907c -4.92  -4.02c
iter:  16 00:09:30  -994.566920c -5.29  -4.09c
iter:  17 00:12:36  -994.566937c -5.19  -4.34c
iter:  18 00:15:40  -994.566929c -5.60  -4.33c
iter:  19 00:18:46  -994.566915c -5.59  -4.46c
Writing to output.gpw (mode='')

iter:  20 00:21:58  -994.566920c -5.88  -4.60c
iter:  21 00:25:03  -994.566920c -6.02  -4.70c
iter:  22 00:28:14  -994.566922c -6.03  -4.68c
iter:  23 00:31:16  -994.566928c -5.97  -4.68c
iter:  24 00:34:19  -994.566927c -6.27  -4.53c
Writing to output.gpw (mode='')

iter:  25 00:37:18  -994.566933c -6.16  -4.54c
iter:  26 00:40:27  -994.566928c -6.46  -4.41c
iter:  27 00:43:34  -994.566924c -6.22  -4.56c
iter:  28 00:46:49  -994.566923c -6.72  -4.88c
iter:  29 00:50:01  -994.566920c -6.48  -4.95c
Writing to output.gpw (mode='')

iter:  30 00:52:27  -994.566922c -6.89  -4.91c
iter:  31 00:55:26  -994.566923c -7.14  -5.00c
iter:  32 00:56:58  -994.566922c -7.15  -4.99c
iter:  33 00:57:53  -994.566927c -7.11  -5.07c
iter:  34 00:59:18  -994.566925c -7.44c -4.84c

Converged after 34 iterations.

Dipole moment: (-11.232056, -6.860015, 0.001350) |e|*Ang

Energy contributions relative to reference atoms: (reference = -237723.237536)

Kinetic:        +45.491888
Potential:       -8.766775
External:        +0.000000
XC:            -1031.292270
Entropy (-ST):   -0.119703
Local:           +0.060083
--------------------------
Free energy:   -994.626777
Extrapolated:  -994.566925

Dipole-layer corrected work functions: 4.346027, 4.343688 eV

Showing only first 2 kpts
 Kpt  Band  Eigenvalues  Occupancy
  0    52     -4.45842    1.81292
  0    53     -4.36246    1.17420
  0    54     -4.32585    0.81222
  0    55     -4.30122    0.58935

  1    52     -4.59090    1.98552
  1    53     -4.29698    0.55471
  1    54     -4.07048    0.00824
  1    55     -3.94395    0.00066


Fermi level: -4.34486

No gap
Writing to output.gpw (mode='')


Forces in eV/Ang:
  0 Al   -0.00480   -0.00127    0.16584
  1 Al    0.00000    0.00287    0.16786
  2 Al    0.00480   -0.00127    0.16584
  3 Al    0.00515    0.00000    0.16796
  4 Al    0.00000    0.00000    0.16597
  5 Al   -0.00515    0.00000    0.16796
  6 Al   -0.00480    0.00127    0.16584
  7 Al    0.00000   -0.00287    0.16786
  8 Al    0.00480    0.00127    0.16584
  9 Al    0.00000    0.00000   -0.22459
 10 Al   -0.00548    0.00000   -0.22233
 11 Al    0.00548    0.00000   -0.22233
 12 Al    0.00000   -0.00185   -0.22284
 13 Al    0.00469    0.00095   -0.22327
 14 Al   -0.00469    0.00095   -0.22327
 15 Al    0.00000    0.00185   -0.22284
 16 Al    0.00469   -0.00095   -0.22327
 17 Al   -0.00469   -0.00095   -0.22327
 18 Al    0.00204    0.00199    0.08126
 19 Al    0.00000   -0.00272    0.08456
 20 Al   -0.00204    0.00199    0.08126
 21 Al   -0.00142    0.00000    0.08621
 22 Al    0.00000    0.00000    0.07803
 23 Al    0.00142    0.00000    0.08621
 24 Al    0.00204   -0.00199    0.08126
 25 Al    0.00000    0.00272    0.08456
 26 Al   -0.00204   -0.00199    0.08126
 27 Al    0.00000    0.00000   -0.02287
 28 Al    0.00018    0.00000   -0.02991
 29 Al   -0.00018    0.00000   -0.02991
 30 Al    0.00000    0.00184   -0.02858
 31 Al   -0.00049   -0.00136   -0.02582
 32 Al    0.00049   -0.00136   -0.02582
 33 Al    0.00000   -0.00184   -0.02858
 34 Al   -0.00049    0.00136   -0.02582
 35 Al    0.00049    0.00136   -0.02582

System changes: positions 

Initializing position-dependent things.

Density initialized from wave functions
      .-----------------------------.  
     /|                             |  
    / |                             |  
   /  |                             |  
  /   |                             |  
 *    |                             |  
 |    |                             |  
 |    |                             |  
 |    |                             |  
 |    |                             |  
 |    |                             |  
 |    |                             |  
 |    |                             |  
 |    |                             |  
 |  Al|       Al        Al          |  
 |    |   Al        Al        Al    |  
 | Al |      Al        Al           |  
 Al   |  AlAl      AlAl     Al      |  
 |  Al|Al Al  Al Al Al  Al Al Al    |  
 | Al |      Al        Al           |  
 |    |  Al        Al       Al      |  
 Al   |    Al        Al             |  
 |    |Al        Al        Al       |  
 |    |                             |  
 |    |                             |  
 |    |                             |  
 |    |                             |  
 |    |                             |  
 |    |                             |  
 |    |                             |  
 |    .-----------------------------.  
 |   /                             /   
 |  /                             /    
 | /                             /     
 |/                             /      
 *-----------------------------*       

Positions:
   0 Al     2.025000    1.431891   10.000000    ( 0.0000,  0.0000,  0.0000)
   1 Al     6.075000    1.431891   10.000000    ( 0.0000,  0.0000,  0.0000)
   2 Al    10.125000    1.431891   10.000000    ( 0.0000,  0.0000,  0.0000)
   3 Al     2.025000    4.295674   10.000000    ( 0.0000,  0.0000,  0.0000)
   4 Al     6.075000    4.295674   10.000000    ( 0.0000,  0.0000,  0.0000)
   5 Al    10.125000    4.295674   10.000000    ( 0.0000,  0.0000,  0.0000)
   6 Al     2.025000    7.159456   10.000000    ( 0.0000,  0.0000,  0.0000)
   7 Al     6.075000    7.159456   10.000000    ( 0.0000,  0.0000,  0.0000)
   8 Al    10.125000    7.159456   10.000000    ( 0.0000,  0.0000,  0.0000)
   9 Al     0.000000    0.000000   11.431891    ( 0.0000,  0.0000,  0.0000)
  10 Al     4.050000    0.000000   11.431891    ( 0.0000,  0.0000,  0.0000)
  11 Al     8.100000    0.000000   11.431891    ( 0.0000,  0.0000,  0.0000)
  12 Al     0.000000    2.863782   11.431891    ( 0.0000,  0.0000,  0.0000)
  13 Al     4.050000    2.863782   11.431891    ( 0.0000,  0.0000,  0.0000)
  14 Al     8.100000    2.863782   11.431891    ( 0.0000,  0.0000,  0.0000)
  15 Al     0.000000    5.727565   11.431891    ( 0.0000,  0.0000,  0.0000)
  16 Al     4.050000    5.727565   11.431891    ( 0.0000,  0.0000,  0.0000)
  17 Al     8.100000    5.727565   11.431891    ( 0.0000,  0.0000,  0.0000)
  18 Al     2.024254    1.431752   12.906745    ( 0.0000,  0.0000,  0.0000)
  19 Al     6.075000    1.432240   12.906949    ( 0.0000,  0.0000,  0.0000)
  20 Al    10.125746    1.431752   12.906745    ( 0.0000,  0.0000,  0.0000)
  21 Al     2.025897    4.295674   12.907017    ( 0.0000,  0.0000,  0.0000)
  22 Al     6.075000    4.295674   12.906616    ( 0.0000,  0.0000,  0.0000)
  23 Al    10.124103    4.295674   12.907017    ( 0.0000,  0.0000,  0.0000)
  24 Al     2.024254    7.159595   12.906745    ( 0.0000,  0.0000,  0.0000)
  25 Al     6.075000    7.159107   12.906949    ( 0.0000,  0.0000,  0.0000)
  26 Al    10.125746    7.159595   12.906745    ( 0.0000,  0.0000,  0.0000)
  27 Al    -0.000000    0.000000   14.271895    ( 0.0000,  0.0000,  0.0000)
  28 Al     4.049145   -0.000000   14.271150    ( 0.0000,  0.0000,  0.0000)
  29 Al     8.100855   -0.000000   14.271150    ( 0.0000,  0.0000,  0.0000)
  30 Al    -0.000000    2.863462   14.271213    ( 0.0000,  0.0000,  0.0000)
  31 Al     4.050797    2.863899   14.271775    ( 0.0000,  0.0000,  0.0000)
  32 Al     8.099203    2.863899   14.271775    ( 0.0000,  0.0000,  0.0000)
  33 Al     0.000000    5.727885   14.271213    ( 0.0000,  0.0000,  0.0000)
  34 Al     4.050797    5.727449   14.271775    ( 0.0000,  0.0000,  0.0000)
  35 Al     8.099203    5.727449   14.271775    ( 0.0000,  0.0000,  0.0000)

Unit cell:
           periodic     x           y           z      points  spacing
  1. axis:    yes   12.150000    0.000000    0.000000    76     0.1599
  2. axis:    yes    0.000000    8.591347    0.000000    52     0.1652
  3. axis:    no     0.000000    0.000000   24.295674   152     0.1598

  Lengths:  12.150000   8.591347  24.295674
  Angles:   90.000000  90.000000  90.000000

Effective grid spacing dv^(1/3) = 0.1616

     iter     time        total  log10-change:
                         energy  eigst   dens
iter:   1 01:02:53  -994.621654  -1.27
iter:   2 01:05:57  -994.574799  -2.41  -2.02
iter:   3 01:09:00  -994.572435c -1.29  -2.38
iter:   4 01:11:54  -994.572942c -2.89  -2.75
Writing to output.gpw (mode='')

iter:   5 01:14:58  -994.573378c -2.25  -2.81
iter:   6 01:18:04  -994.573380c -2.77  -3.13
iter:   7 01:21:04  -994.572859c -3.08  -3.03
iter:   8 01:23:55  -994.573051c -3.32  -3.07
iter:   9 01:26:51  -994.572997c -4.08  -3.48
Writing to output.gpw (mode='')

iter:  10 01:30:07  -994.572943c -3.56  -3.58
iter:  11 01:33:09  -994.573179c -3.39  -3.28
iter:  12 01:36:03  -994.573014c -4.46  -3.48
iter:  13 01:38:56  -994.572987c -4.56  -3.95
iter:  14 01:42:04  -994.572984c -4.83  -4.14c
Writing to output.gpw (mode='')

iter:  15 01:45:21  -994.572975c -4.84  -4.11c
iter:  16 01:48:20  -994.572984c -5.36  -4.18c
iter:  17 01:51:21  -994.572988c -5.45  -4.32c
iter:  18 01:54:27  -994.572989c -5.60  -4.43c
iter:  19 01:57:41  -994.572998c -5.52  -4.43c
Writing to output.gpw (mode='')

iter:  20 02:00:53  -994.572994c -5.69  -4.33c
iter:  21 02:03:49  -994.572992c -5.88  -4.41c
iter:  22 02:07:07  -994.572993c -6.00  -4.42c
iter:  23 02:10:14  -994.572990c -6.00  -4.40c
iter:  24 02:13:17  -994.572993c -6.30  -4.49c
Writing to output.gpw (mode='')

iter:  25 02:16:29  -994.573002c -6.01  -4.56c
iter:  26 02:19:30  -994.572996c -6.41  -4.61c
iter:  27 02:22:31  -994.572997c -6.79  -4.83c
iter:  28 02:25:25  -994.572996c -6.69  -4.91c
iter:  29 02:28:25  -994.572994c -6.74  -4.98c
Writing to output.gpw (mode='')

iter:  30 02:31:31  -994.572997c -7.14  -5.15c
iter:  31 02:34:37  -994.572997c -7.29  -5.13c
iter:  32 02:37:35  -994.572995c -7.25  -5.34c
iter:  33 02:40:35  -994.572996c -7.68c -5.48c

Converged after 33 iterations.

Dipole moment: (-11.233310, -6.859275, 0.001718) |e|*Ang

Energy contributions relative to reference atoms: (reference = -237723.237536)

Kinetic:        +45.990005
Potential:       -9.142342
External:        +0.000000
XC:            -1031.420532
Entropy (-ST):   -0.119748
Local:           +0.059748
--------------------------
Free energy:   -994.632870
Extrapolated:  -994.572996

Dipole-layer corrected work functions: 4.351690, 4.348711 eV

Showing only first 2 kpts
 Kpt  Band  Eigenvalues  Occupancy
  0    52     -4.46555    1.81892
  0    53     -4.36343    1.13157
  0    54     -4.32843    0.78565
  0    55     -4.31726    0.68206

  1    52     -4.59266    1.98445
  1    53     -4.29882    0.52712
  1    54     -4.08661    0.01022
  1    55     -3.94488    0.00060


Fermi level: -4.35020

No gap
Writing to output.gpw (mode='')


Forces in eV/Ang:
  0 Al   -0.00480   -0.00126    0.17427
  1 Al    0.00000    0.00279    0.17641
  2 Al    0.00480   -0.00126    0.17427
  3 Al    0.00512    0.00000    0.17652
  4 Al    0.00000    0.00000    0.17428
  5 Al   -0.00512    0.00000    0.17652
  6 Al   -0.00480    0.00126    0.17427
  7 Al    0.00000   -0.00279    0.17641
  8 Al    0.00480    0.00126    0.17427
  9 Al    0.00000    0.00000   -0.22355
 10 Al   -0.00543    0.00000   -0.22138
 11 Al    0.00543    0.00000   -0.22138
 12 Al    0.00000   -0.00155   -0.22192
 13 Al    0.00462    0.00080   -0.22213
 14 Al   -0.00462    0.00080   -0.22213
 15 Al    0.00000    0.00155   -0.22192
 16 Al    0.00462   -0.00080   -0.22213
 17 Al   -0.00462   -0.00080   -0.22213
 18 Al    0.00407    0.00289    0.04066
 19 Al    0.00000   -0.00410    0.04470
 20 Al   -0.00407    0.00289    0.04066
 21 Al   -0.00354    0.00000    0.04642
 22 Al    0.00000    0.00000    0.03525
 23 Al    0.00354    0.00000    0.04642
 24 Al    0.00407   -0.00289    0.04066
 25 Al    0.00000    0.00410    0.04470
 26 Al   -0.00407   -0.00289    0.04066
 27 Al    0.00000    0.00000    0.00971
 28 Al    0.00157    0.00000    0.00141
 29 Al   -0.00157    0.00000    0.00141
 30 Al    0.00000    0.00278    0.00299
 31 Al   -0.00185   -0.00200    0.00583
 32 Al    0.00185   -0.00200    0.00583
 33 Al    0.00000   -0.00278    0.00299
 34 Al   -0.00185    0.00200    0.00583
 35 Al    0.00185    0.00200    0.00583

Timing:                                      incl.     excl.
-------------------------------------------------------------------
Density initialized from wave functions:     7.356     4.315   0.0% |
 Symmetrize density:                         3.042     3.042   0.0% |
Forces:                                     65.147    65.147   0.2% |
Hamiltonian:                               726.040     0.001   0.0% |
 Atomic:                                     1.960     0.548   0.0% |
  XC Correction:                             1.412     1.412   0.0% |
 Calculate atomic Hamiltonians:              1.914     1.914   0.0% |
 Communicate:                                1.681     1.681   0.0% |
 Hartree integrate/restrict:                 1.038     1.038   0.0% |
 Initialize Hamiltonian:                     0.000     0.000   0.0% |
 Poisson:                                   14.519     5.839   0.0% |
  Communicate from 1D:                       1.746     1.746   0.0% |
  Communicate from 2D:                       1.889     1.889   0.0% |
  Communicate to 1D:                         0.760     0.760   0.0% |
  Communicate to 2D:                         1.529     1.529   0.0% |
  FFT 1D:                                    1.261     1.261   0.0% |
  FFT 2D:                                    1.495     1.495   0.0% |
 XC 3D grid:                               704.766    38.016   0.1% |
  VdW-DF integral:                         666.750     1.403   0.0% |
   Convolution:                             38.031    38.031   0.1% |
   FFT:                                      7.506     7.506   0.0% |
   gather:                                 537.495   537.495   1.4% ||
   hmm1:                                     5.792     5.792   0.0% |
   hmm2:                                     7.707     7.707   0.0% |
   iFFT:                                     6.938     6.938   0.0% |
   potential:                               49.018     0.355   0.0% |
    collect:                                 6.508     6.508   0.0% |
    p1:                                     17.028    17.028   0.0% |
    p2:                                      9.631     9.631   0.0% |
    sum:                                    15.495    15.495   0.0% |
   splines:                                 12.860    12.860   0.0% |
 vbar:                                       0.162     0.162   0.0% |
LCAO initialization:                         8.163     0.069   0.0% |
 LCAO eigensolver:                           1.821     0.001   0.0% |
  Calculate projections:                     0.000     0.000   0.0% |
  DenseAtomicCorrection:                     0.000     0.000   0.0% |
  Distribute overlap matrix:                 1.697     1.697   0.0% |
  Orbital Layouts:                           0.076     0.076   0.0% |
  Potential matrix:                          0.045     0.045   0.0% |
  Sum over cells:                            0.002     0.002   0.0% |
 LCAO to grid:                               4.935     4.935   0.0% |
 Set positions (LCAO WFS):                   1.338     1.044   0.0% |
  Basic WFS set positions:                   0.020     0.020   0.0% |
  Basis functions set positions:             0.001     0.001   0.0% |
  P tci:                                     0.000     0.000   0.0% |
  ST tci:                                    0.130     0.130   0.0% |
  mktci:                                     0.143     0.143   0.0% |
Redistribute:                                0.005     0.005   0.0% |
SCF-cycle:                               37357.179   468.929   1.2% |
 Davidson:                               12693.516  4934.314  12.9% |----|
  Apply hamiltonian:                       581.967   581.967   1.5% ||
  Subspace diag:                          1484.545     0.063   0.0% |
   calc_h_matrix:                          862.494   295.315   0.8% |
    Apply hamiltonian:                     567.178   567.178   1.5% ||
   diagonalize:                             71.803    71.803   0.2% |
   rotate_psi:                             550.185   550.185   1.4% ||
  calc. matrices:                         4551.397  2234.284   5.8% |-|
   Apply hamiltonian:                     2317.113  2317.113   6.1% |-|
  diagonalize:                              15.291    15.291   0.0% |
  rotate_psi:                             1126.002  1126.002   2.9% ||
 Density:                                  251.074     0.008   0.0% |
  Atomic density matrices:                  32.970    32.970   0.1% |
  Mix:                                      43.021    43.021   0.1% |
  Multipole moments:                         0.661     0.661   0.0% |
  Pseudo density:                          174.414    65.210   0.2% |
   Symmetrize density:                     109.204   109.204   0.3% |
 Hamiltonian:                            23912.466     0.060   0.0% |
  Atomic:                                   60.131    15.332   0.0% |
   XC Correction:                           44.799    44.799   0.1% |
  Calculate atomic Hamiltonians:            65.645    65.645   0.2% |
  Communicate:                              76.168    76.168   0.2% |
  Hartree integrate/restrict:               28.960    28.960   0.1% |
  Poisson:                                 483.227   202.063   0.5% |
   Communicate from 1D:                     54.034    54.034   0.1% |
   Communicate from 2D:                     58.844    58.844   0.2% |
   Communicate to 1D:                       17.475    17.475   0.0% |
   Communicate to 2D:                       54.714    54.714   0.1% |
   FFT 1D:                                  44.813    44.813   0.1% |
   FFT 2D:                                  51.285    51.285   0.1% |
  XC 3D grid:                            23193.722  1226.118   3.2% ||
   VdW-DF integral:                      21967.604    46.937   0.1% |
    Convolution:                          1250.382  1250.382   3.3% ||
    FFT:                                   244.816   244.816   0.6% |
    gather:                              18094.009 18094.009  47.3% |------------------|
    hmm1:                                  190.484   190.484   0.5% |
    hmm2:                                  275.687   275.687   0.7% |
    iFFT:                                  227.525   227.525   0.6% |
    potential:                            1637.761    11.839   0.0% |
     collect:                              228.509   228.509   0.6% |
     p1:                                   594.342   594.342   1.6% ||
     p2:                                   396.972   396.972   1.0% |
     sum:                                  406.099   406.099   1.1% |
    splines:                                 0.002     0.002   0.0% |
  vbar:                                      4.553     4.553   0.0% |
 Orthonormalize:                            31.193     0.002   0.0% |
  calc_s_matrix:                             3.783     3.783   0.0% |
  inverse-cholesky:                         19.353    19.353   0.1% |
  projections:                               0.000     0.000   0.0% |
  rotate_psi_s:                              8.056     8.056   0.0% |
Set symmetry:                                0.006     0.006   0.0% |
Other:                                     128.968   128.968   0.3% |
-------------------------------------------------------------------
Total:                                             38292.863 100.0%

Memory usage: 1.40 GiB
Date: Wed Jan 18 02:40:49 2023
