
  ___ ___ ___ _ _ _  
 |   |   |_  | | | | 
 | | | | | . | | | | 
 |__ |  _|___|_____|  22.8.0
 |___|_|             

User:   vazumah@f019
Date:   Wed Nov 23 02:11:23 2022
Arch:   x86_64
Pid:    4141
CWD:    /home/vazumah/Python_Projects/Li_NRR/autocad_start/bulk_relaxations/Sr_bulk_fcc
Python: 3.10.6
gpaw:   /home/vazumah/anaconda3/envs/NAME/lib/python3.10/site-packages/gpaw
_gpaw:  /home/vazumah/anaconda3/envs/NAME/lib/python3.10/site-packages/
        _gpaw.cpython-310-x86_64-linux-gnu.so
ase:    /home/vazumah/anaconda3/envs/NAME/lib/python3.10/site-packages/ase (version 3.22.1)
numpy:  /home/vazumah/anaconda3/envs/NAME/lib/python3.10/site-packages/numpy (version 1.23.3)
scipy:  /home/vazumah/anaconda3/envs/NAME/lib/python3.10/site-packages/scipy (version 1.9.1)
libxc:  5.2.3
units:  Angstrom and eV
cores: 32
OpenMP: True
OMP_NUM_THREADS: 1

Input parameters:
  h: 0.16
  kpts: {size: [9, 9, 1]}
  occupations: {name: fermi-dirac,
                width: 0.05}
  xc: BEEF-vdW

System changes: positions, numbers, cell, pbc, initial_charges, initial_magmoms 

Initialize ...

species:
  Sr:
    name: Strontium
    id: 1681cef0785a8ddd65899c0215808a0d
    Z: 38.0
    valence: 10
    core: 28
    charge: 0.0
    file: /home/vazumah/anaconda3/envs/NAME/share/gpaw/Sr.PBE.gz
    compensation charges: {type: gauss,
                           rc: 0.40,
                           lmax: 2}
    cutoffs: {filter: 2.39,
              core: 1.85}
    valence states:
      #              energy  rcut
      - 4s(2.00)   -40.883   1.291
      - 5s(2.00)    -3.525   1.291
      - 4p(6.00)   -22.826   1.291
      -  p           4.386   1.291
      -  d           0.000   1.254
  
    # Using partial waves for Sr as LCAO basis

Reference energy: -86496.770008  # eV

Spin-paired calculation

Convergence criteria:
 Maximum [total energy] change in last 3 cyles: 0.0005 eV / electron
 Maximum integral of absolute [dens]ity change: 0.0001 electrons / valence electron
 Maximum integral of absolute [eigenst]ate change: 4e-08 eV^2 / valence electron
 Maximum number of scf [iter]ations: 333
 (Square brackets indicate name in SCF output, whereas a 'c' in
 the SCF output indicates the quantity has converged.)

Symmetries present (total): 48

  ( 1  0  0)  ( 1  0  0)  ( 1  0  0)  ( 1  0  0)  ( 1  0 -1)  ( 1  0 -1)
  ( 1  0 -1)  ( 1 -1  0)  ( 0  1  0)  ( 0  0  1)  ( 1  0  0)  ( 1 -1  0)
  ( 1 -1  0)  ( 1  0 -1)  ( 0  0  1)  ( 0  1  0)  ( 1 -1  0)  ( 1  0  0)

  ( 1  0 -1)  ( 1  0 -1)  ( 1 -1  0)  ( 1 -1  0)  ( 1 -1  0)  ( 1 -1  0)
  ( 0  1 -1)  ( 0  0 -1)  ( 1  0  0)  ( 1  0 -1)  ( 0 -1  1)  ( 0 -1  0)
  ( 0  0 -1)  ( 0  1 -1)  ( 1  0 -1)  ( 1  0  0)  ( 0 -1  0)  ( 0 -1  1)

  ( 0  1  0)  ( 0  1  0)  ( 0  1  0)  ( 0  1  0)  ( 0  1 -1)  ( 0  1 -1)
  ( 1  0  0)  ( 0  1 -1)  ( 0  0  1)  (-1  1  0)  ( 1  0 -1)  ( 0  1  0)
  ( 0  0  1)  (-1  1  0)  ( 1  0  0)  ( 0  1 -1)  ( 0  0 -1)  (-1  1  0)

  ( 0  1 -1)  ( 0  1 -1)  ( 0  0  1)  ( 0  0  1)  ( 0  0  1)  ( 0  0  1)
  ( 0  0 -1)  (-1  1  0)  ( 1  0  0)  ( 0  1  0)  ( 0 -1  1)  (-1  0  1)
  ( 1  0 -1)  ( 0  1  0)  ( 0  1  0)  ( 1  0  0)  (-1  0  1)  ( 0 -1  1)

  ( 0  0 -1)  ( 0  0 -1)  ( 0  0 -1)  ( 0  0 -1)  ( 0 -1  1)  ( 0 -1  1)
  ( 1  0 -1)  ( 0  1 -1)  ( 0 -1  0)  (-1  0  0)  ( 1 -1  0)  ( 0  0  1)
  ( 0  1 -1)  ( 1  0 -1)  (-1  0  0)  ( 0 -1  0)  ( 0 -1  0)  (-1  0  1)

  ( 0 -1  1)  ( 0 -1  1)  ( 0 -1  0)  ( 0 -1  0)  ( 0 -1  0)  ( 0 -1  0)
  ( 0 -1  0)  (-1  0  1)  ( 1 -1  0)  ( 0  0 -1)  ( 0 -1  1)  (-1  0  0)
  ( 1 -1  0)  ( 0  0  1)  ( 0 -1  1)  (-1  0  0)  ( 1 -1  0)  ( 0  0 -1)

  (-1  1  0)  (-1  1  0)  (-1  1  0)  (-1  1  0)  (-1  0  1)  (-1  0  1)
  ( 0  1  0)  ( 0  1 -1)  (-1  0  1)  (-1  0  0)  ( 0  0  1)  ( 0 -1  1)
  ( 0  1 -1)  ( 0  1  0)  (-1  0  0)  (-1  0  1)  ( 0 -1  1)  ( 0  0  1)

  (-1  0  1)  (-1  0  1)  (-1  0  0)  (-1  0  0)  (-1  0  0)  (-1  0  0)
  (-1  1  0)  (-1  0  0)  ( 0  0 -1)  ( 0 -1  0)  (-1  1  0)  (-1  0  1)
  (-1  0  0)  (-1  1  0)  ( 0 -1  0)  ( 0  0 -1)  (-1  0  1)  (-1  1  0)
Note: your k-points are not as symmetric as your crystal!

81 k-points: 9 x 9 x 1 Monkhorst-Pack grid
25 k-points in the irreducible part of the Brillouin zone
       k-points in crystal coordinates                weights
   0:     0.00000000    0.00000000    0.00000000          1/81
   1:     0.11111111   -0.11111111    0.00000000          2/81
   2:     0.11111111    0.00000000    0.00000000          4/81
   3:     0.11111111    0.11111111    0.00000000          2/81
   4:     0.22222222   -0.22222222    0.00000000          2/81
   5:     0.22222222   -0.11111111    0.00000000          4/81
   6:     0.22222222    0.00000000    0.00000000          4/81
   7:     0.22222222    0.11111111    0.00000000          4/81
   8:     0.22222222    0.22222222    0.00000000          2/81
   9:     0.33333333   -0.33333333    0.00000000          2/81
          ...
  24:     0.44444444    0.44444444    0.00000000          2/81

Wave functions: Uniform real-space grid
  Kinetic energy operator: 12*3+1=37 point O(h^6) finite-difference Laplacian
  ScaLapack parameters: grid=1x1, blocksize=None
  Wavefunction extrapolation:
    Improved wavefunction reuse through dual PAW basis 

Occupation numbers: Fermi-Dirac:
  width: 0.0500  # eV
 

Eigensolver
   Davidson(niter=2) 

Densities:
  Coarse grid: 20*20*20 grid
  Fine grid: 40*40*40 grid
  Total Charge: 0.000000 

Density mixing:
  Method: separate
  Backend: pulay
  Linear mixing parameter: 0.05
  old densities: 5
  Damping of long wavelength oscillations: 50 

Hamiltonian:
  XC and Coulomb potentials evaluated on a 40*40*40 grid
  Using the BEEF-vdW Exchange-Correlation functional
  Interpolation: tri-quintic (5. degree polynomial)
  Poisson solver: FastPoissonSolver using
    Stencil: 12*3+1=37 point O(h^6) finite-difference Laplacian
    FFT axes: [0, 1, 2]
    FST axes: []
 

XC parameters: BEEF-vdW with 2 nearest neighbor stencil

Memory estimate:
  Process memory now: 111.31 MiB
  Calculator: 1.18 MiB
    Density: 0.49 MiB
      Arrays: 0.10 MiB
      Localized functions: 0.35 MiB
      Mixer: 0.04 MiB
    Hamiltonian: 0.10 MiB
      Arrays: 0.06 MiB
      XC: 0.00 MiB
      Poisson: 0.00 MiB
      vbar: 0.03 MiB
    Wavefunctions: 0.59 MiB
      Arrays psit_nG: 0.46 MiB
      Eigensolver: 0.08 MiB
      Projections: 0.00 MiB
      Projectors: 0.05 MiB

Total number of cores used: 32
Parallelization over k-points: 2
Domain decomposition: 4 x 2 x 2

Number of atoms: 1
Number of atomic orbitals: 5
Number of bands in calculation: 5
Number of valence electrons: 10
Bands to converge: occupied

... initialized

Initializing position-dependent things.

Density initialized from atomic densities
Creating initial wave functions:
  5 bands from LCAO basis set

                
                
                
       Sr       
                
                
                
                

Positions:
   0 Sr     0.000000    0.000000    0.000000    ( 0.0000,  0.0000,  0.0000)

Unit cell:
           periodic     x           y           z      points  spacing
  1. axis:    yes    0.000000    3.040000    3.040000    20     0.1755
  2. axis:    yes    3.040000    0.000000    3.040000    20     0.1755
  3. axis:    yes    3.040000    3.040000    0.000000    20     0.1755

  Lengths:   4.299209   4.299209   4.299209
  Angles:   60.000000  60.000000  60.000000

Effective grid spacing dv^(1/3) = 0.1915

     iter     time        total  log10-change:
                         energy  eigst   dens
iter:   1 02:11:34  -108.359598
iter:   2 02:11:35  -108.506321  +0.19  -1.56
iter:   3 02:11:38  -108.558375  -0.27  -1.58
iter:   4 02:11:40  -108.584242  -0.50  -1.62
Writing to output.gpw (mode='')

iter:   5 02:11:41  -108.595631  -0.87  -2.09
iter:   6 02:11:42  -108.601631  -1.27  -2.14
iter:   7 02:11:44  -108.601057  -1.41  -2.35
iter:   8 02:11:46  -108.603395c -1.56  -2.66
iter:   9 02:11:50  -108.605334c -1.69  -2.53
Writing to output.gpw (mode='')

iter:  10 02:11:52  -108.607840c -1.78  -2.44
iter:  11 02:11:53  -108.606132c -1.89  -2.35
iter:  12 02:11:55  -108.606797c -2.00  -2.70
iter:  13 02:11:57  -108.607350c -2.07  -2.67
iter:  14 02:11:58  -108.607925c -2.13  -2.62
Writing to output.gpw (mode='')

iter:  15 02:12:00  -108.608393c -2.21  -2.60
iter:  16 02:12:02  -108.608735c -2.25  -2.53
iter:  17 02:12:03  -108.608903c -2.31  -2.52
iter:  18 02:12:05  -108.609000c -2.39  -2.53
iter:  19 02:12:06  -108.609357c -2.43  -2.25
Writing to output.gpw (mode='')

iter:  20 02:12:08  -108.609615c -2.47  -2.36
iter:  21 02:12:09  -108.609918c -2.51  -2.46
iter:  22 02:12:11  -108.610066c -2.56  -3.06
iter:  23 02:12:13  -108.610220c -2.63  -3.08
iter:  24 02:12:14  -108.610335c -2.65  -3.14
Writing to output.gpw (mode='')

iter:  25 02:12:16  -108.610449c -2.72  -2.99
iter:  26 02:12:17  -108.610544c -2.77  -3.15
iter:  27 02:12:19  -108.610629c -2.80  -3.31
iter:  28 02:12:21  -108.610717c -2.87  -2.82
iter:  29 02:12:22  -108.610780c -2.94  -3.26
Writing to output.gpw (mode='')

iter:  30 02:12:24  -108.610835c -2.99  -3.64
iter:  31 02:12:26  -108.610884c -3.05  -3.70
iter:  32 02:12:27  -108.610928c -3.10  -3.40
iter:  33 02:12:29  -108.610964c -3.17  -3.98
iter:  34 02:12:30  -108.610995c -3.22  -3.91
Writing to output.gpw (mode='')

iter:  35 02:12:33  -108.611026c -3.25  -3.69
iter:  36 02:12:34  -108.611051c -3.33  -4.28c
iter:  37 02:12:36  -108.611072c -3.39  -4.48c
iter:  38 02:12:37  -108.611091c -3.45  -4.04c
iter:  39 02:12:39  -108.611107c -3.50  -4.17c
Writing to output.gpw (mode='')

iter:  40 02:12:41  -108.611122c -3.56  -3.95
iter:  41 02:12:42  -108.611135c -3.62  -3.88
iter:  42 02:12:44  -108.611146c -3.67  -3.87
iter:  43 02:12:45  -108.611156c -3.72  -3.80
iter:  44 02:12:47  -108.611165c -3.76  -3.76
Writing to output.gpw (mode='')

iter:  45 02:12:48  -108.611173c -3.81  -3.71
iter:  46 02:12:50  -108.611180c -3.90  -3.69
iter:  47 02:12:51  -108.611185c -3.97  -3.57
iter:  48 02:12:53  -108.611191c -4.02  -3.57
iter:  49 02:12:55  -108.611195c -4.05  -3.70
Writing to output.gpw (mode='')

iter:  50 02:12:57  -108.611200c -4.11  -3.66
iter:  51 02:12:58  -108.611204c -4.16  -4.53c
iter:  52 02:13:00  -108.611206c -4.24  -4.46c
iter:  53 02:13:02  -108.611209c -4.28  -3.55
iter:  54 02:13:04  -108.611212c -4.34  -4.31c
Writing to output.gpw (mode='')

iter:  55 02:13:05  -108.611214c -4.39  -4.35c
iter:  56 02:13:07  -108.611216c -4.44  -4.97c
iter:  57 02:13:09  -108.611218c -4.48  -5.31c
iter:  58 02:13:11  -108.611219c -4.56  -4.44c
iter:  59 02:13:13  -108.611220c -4.61  -6.06c
Writing to output.gpw (mode='')

iter:  60 02:13:15  -108.611221c -4.68  -4.93c
iter:  61 02:13:16  -108.611222c -4.74  -4.92c
iter:  62 02:13:17  -108.611223c -4.79  -5.13c
iter:  63 02:13:19  -108.611224c -4.85  -5.19c
iter:  64 02:13:20  -108.611225c -4.90  -5.02c
Writing to output.gpw (mode='')

iter:  65 02:13:22  -108.611225c -4.96  -4.67c
iter:  66 02:13:23  -108.611226c -5.01  -4.68c
iter:  67 02:13:24  -108.611226c -5.07  -4.55c
iter:  68 02:13:25  -108.611227c -5.13  -4.50c
iter:  69 02:13:28  -108.611227c -5.18  -4.56c
Writing to output.gpw (mode='')

iter:  70 02:13:29  -108.611227c -5.23  -4.73c
iter:  71 02:13:31  -108.611228c -5.29  -4.82c
iter:  72 02:13:32  -108.611228c -5.34  -4.57c
iter:  73 02:13:34  -108.611228c -5.41  -5.12c
iter:  74 02:13:36  -108.611228c -5.46  -4.78c
Writing to output.gpw (mode='')

iter:  75 02:13:39  -108.611228c -5.50  -4.52c
iter:  76 02:13:40  -108.611229c -5.57  -4.50c
iter:  77 02:13:42  -108.611229c -5.61  -4.89c
iter:  78 02:13:44  -108.611229c -5.66  -4.76c
iter:  79 02:13:46  -108.611229c -5.72  -5.03c
Writing to output.gpw (mode='')

iter:  80 02:13:47  -108.611229c -5.77  -5.65c
iter:  81 02:13:49  -108.611229c -5.82  -5.80c
iter:  82 02:13:51  -108.611229c -5.87  -4.95c
iter:  83 02:13:53  -108.611229c -5.94  -5.10c
iter:  84 02:13:54  -108.611229c -5.99  -5.25c
Writing to output.gpw (mode='')

iter:  85 02:13:56  -108.611229c -6.05  -5.79c
iter:  86 02:13:58  -108.611229c -6.10  -6.03c
iter:  87 02:13:59  -108.611229c -6.15  -5.68c
iter:  88 02:14:01  -108.611229c -6.21  -5.56c
iter:  89 02:14:02  -108.611229c -6.27  -5.81c
Writing to output.gpw (mode='')

iter:  90 02:14:04  -108.611229c -6.32  -5.57c
iter:  91 02:14:05  -108.611229c -6.36  -5.45c
iter:  92 02:14:07  -108.611229c -6.42  -5.35c
iter:  93 02:14:09  -108.611230c -6.50  -5.30c
iter:  94 02:14:11  -108.611230c -6.56  -5.27c
Writing to output.gpw (mode='')

iter:  95 02:14:12  -108.611230c -6.62  -5.11c
iter:  96 02:14:14  -108.611230c -6.66  -5.10c
iter:  97 02:14:15  -108.611230c -6.70  -5.12c
iter:  98 02:14:17  -108.611230c -6.77  -5.29c
iter:  99 02:14:19  -108.611230c -6.83  -4.96c
Writing to output.gpw (mode='')

iter: 100 02:14:21  -108.611230c -6.89  -5.03c
iter: 101 02:14:23  -108.611230c -6.94  -4.95c
iter: 102 02:14:25  -108.611230c -6.98  -5.07c
iter: 103 02:14:26  -108.611230c -7.03  -5.47c
iter: 104 02:14:27  -108.611230c -7.08  -5.79c
Writing to output.gpw (mode='')

iter: 105 02:14:29  -108.611230c -7.16  -6.18c
iter: 106 02:14:30  -108.611230c -7.21  -5.54c
iter: 107 02:14:32  -108.611230c -7.27  -6.35c
iter: 108 02:14:34  -108.611230c -7.32  -5.82c
iter: 109 02:14:35  -108.611230c -7.37  -5.92c
Writing to output.gpw (mode='')

iter: 110 02:14:37  -108.611230c -7.43c -6.08c

Converged after 110 iterations.

Dipole moment: (-1.730309, -1.730309, -1.730309) |e|*Ang

Energy contributions relative to reference atoms: (reference = -86496.770008)

Kinetic:         +9.135735
Potential:       -7.911156
External:        +0.000000
XC:            -109.697473
Entropy (-ST):   -0.000000
Local:           -0.138336
--------------------------
Free energy:   -108.611230
Extrapolated:  -108.611230

Showing only first 2 kpts
 Kpt  Band  Eigenvalues  Occupancy
  0     3    -15.46918    2.00000
  0     4     -0.28542    2.00000

  1     3    -15.47414    2.00000
  1     4      0.21550    2.00000


Fermi level: inf


Forces in eV/Ang:
  0 Sr    0.00000    0.00000    0.00000

Timing:                              incl.     excl.
-----------------------------------------------------------
Forces:                              0.067     0.067   0.0% |
Hamiltonian:                         9.230     0.000   0.0% |
 Atomic:                             0.171     0.171   0.1% |
  XC Correction:                     0.000     0.000   0.0% |
 Calculate atomic Hamiltonians:      0.001     0.001   0.0% |
 Communicate:                        0.002     0.002   0.0% |
 Hartree integrate/restrict:         0.000     0.000   0.0% |
 Initialize Hamiltonian:             0.000     0.000   0.0% |
 Poisson:                            0.031     0.000   0.0% |
  Communicate from 1D:               0.004     0.004   0.0% |
  Communicate from 2D:               0.017     0.017   0.0% |
  Communicate to 1D:                 0.004     0.004   0.0% |
  Communicate to 2D:                 0.004     0.004   0.0% |
  FFT 1D:                            0.000     0.000   0.0% |
  FFT 2D:                            0.001     0.001   0.0% |
 XC 3D grid:                         9.024     0.102   0.1% |
  VdW-DF integral:                   8.922     0.005   0.0% |
   Convolution:                      0.006     0.006   0.0% |
   FFT:                              0.002     0.002   0.0% |
   gather:                           2.931     2.931   1.5% ||
   hmm1:                             0.004     0.004   0.0% |
   hmm2:                             0.004     0.004   0.0% |
   iFFT:                             0.003     0.003   0.0% |
   potential:                        0.219     0.001   0.0% |
    collect:                         0.017     0.017   0.0% |
    p1:                              0.018     0.018   0.0% |
    p2:                              0.007     0.007   0.0% |
    sum:                             0.175     0.175   0.1% |
   splines:                          5.748     5.748   3.0% ||
 vbar:                               0.000     0.000   0.0% |
LCAO initialization:                 0.160     0.041   0.0% |
 LCAO eigensolver:                   0.066     0.001   0.0% |
  Calculate projections:             0.000     0.000   0.0% |
  DenseAtomicCorrection:             0.001     0.001   0.0% |
  Distribute overlap matrix:         0.013     0.013   0.0% |
  Orbital Layouts:                   0.043     0.043   0.0% |
  Potential matrix:                  0.002     0.002   0.0% |
  Sum over cells:                    0.005     0.005   0.0% |
 LCAO to grid:                       0.003     0.003   0.0% |
 Set positions (LCAO WFS):           0.050     0.008   0.0% |
  Basic WFS set positions:           0.003     0.003   0.0% |
  Basis functions set positions:     0.000     0.000   0.0% |
  P tci:                             0.011     0.011   0.0% |
  ST tci:                            0.015     0.015   0.0% |
  mktci:                             0.012     0.012   0.0% |
SCF-cycle:                         183.637    12.365   6.4% |--|
 Davidson:                          59.680    27.639  14.2% |-----|
  Apply hamiltonian:                 5.640     5.640   2.9% ||
  Subspace diag:                     9.683     0.107   0.1% |
   calc_h_matrix:                    8.222     0.316   0.2% |
    Apply hamiltonian:               7.906     7.906   4.1% |-|
   diagonalize:                      1.193     1.193   0.6% |
   rotate_psi:                       0.160     0.160   0.1% |
  calc. matrices:                   15.186     6.397   3.3% ||
   Apply hamiltonian:                8.789     8.789   4.5% |-|
  diagonalize:                       0.336     0.336   0.2% |
  rotate_psi:                        1.197     1.197   0.6% |
 Density:                            9.476     0.002   0.0% |
  Atomic density matrices:           0.482     0.482   0.2% |
  Mix:                               2.955     2.955   1.5% ||
  Multipole moments:                 0.255     0.255   0.1% |
  Pseudo density:                    5.782     0.041   0.0% |
   Symmetrize density:               5.741     5.741   3.0% ||
 Hamiltonian:                      102.081     0.011   0.0% |
  Atomic:                           20.613    20.612  10.6% |---|
   XC Correction:                    0.001     0.001   0.0% |
  Calculate atomic Hamiltonians:     0.792     0.792   0.4% |
  Communicate:                       0.264     0.264   0.1% |
  Hartree integrate/restrict:        0.477     0.477   0.2% |
  Poisson:                           6.216     0.066   0.0% |
   Communicate from 1D:              1.518     1.518   0.8% |
   Communicate from 2D:              1.880     1.880   1.0% |
   Communicate to 1D:                1.016     1.016   0.5% |
   Communicate to 2D:                1.660     1.660   0.9% |
   FFT 1D:                           0.020     0.020   0.0% |
   FFT 2D:                           0.057     0.057   0.0% |
  XC 3D grid:                       73.702     7.196   3.7% ||
   VdW-DF integral:                 66.506     0.279   0.1% |
    Convolution:                     0.582     0.582   0.3% |
    FFT:                             0.244     0.244   0.1% |
    gather:                         48.616    48.616  25.0% |---------|
    hmm1:                            0.472     0.472   0.2% |
    hmm2:                            0.477     0.477   0.2% |
    iFFT:                            0.340     0.340   0.2% |
    potential:                      15.495     0.070   0.0% |
     collect:                        2.106     2.106   1.1% |
     p1:                             1.912     1.912   1.0% |
     p2:                             0.729     0.729   0.4% |
     sum:                           10.678    10.678   5.5% |-|
    splines:                         0.001     0.001   0.0% |
  vbar:                              0.005     0.005   0.0% |
 Orthonormalize:                     0.036     0.001   0.0% |
  calc_s_matrix:                     0.003     0.003   0.0% |
  inverse-cholesky:                  0.014     0.014   0.0% |
  projections:                       0.017     0.017   0.0% |
  rotate_psi_s:                      0.001     0.001   0.0% |
Set symmetry:                        0.043     0.043   0.0% |
Other:                               1.269     1.269   0.7% |
-----------------------------------------------------------
Total:                                       194.405 100.0%

Memory usage: 149.34 MiB
Date: Wed Nov 23 02:14:37 2022
