
  ___ ___ ___ _ _ _  
 |   |   |_  | | | | 
 | | | | | . | | | | 
 |__ |  _|___|_____|  22.8.0
 |___|_|             

User:   vazumah@c22.hercules
Date:   Tue Jan 17 23:04:48 2023
Arch:   x86_64
Pid:    5647
CWD:    /home/vazumah/Python_projects/LiNRR/autocad_start/slab_experiments/free_slabs/Na/bcc110/substrate
Python: 3.10.8
gpaw:   /home/vazumah/.conda/envs/GPAW/lib/python3.10/site-packages/gpaw
_gpaw:  /home/vazumah/.conda/envs/GPAW/lib/python3.10/site-packages/
        _gpaw.cpython-310-x86_64-linux-gnu.so
ase:    /home/vazumah/.conda/envs/GPAW/lib/python3.10/site-packages/ase (version 3.22.1)
numpy:  /home/vazumah/.conda/envs/GPAW/lib/python3.10/site-packages/numpy (version 1.24.1)
scipy:  /home/vazumah/.conda/envs/GPAW/lib/python3.10/site-packages/scipy (version 1.10.0)
libxc:  5.2.3
units:  Angstrom and eV
cores: 24
OpenMP: True
OMP_NUM_THREADS: 1

Input parameters:
  eigensolver: {name: dav,
                niter: 3}
  h: 0.16
  kpts: {size: [4, 4, 1]}
  maxiter: 999
  mixer: {backend: pulay,
          beta: 0.02,
          method: separate,
          nmaxold: 5,
          weight: 100}
  occupations: {name: fermi-dirac,
                width: 0.05}
  poissonsolver: {dipolelayer: xy}
  xc: BEEF-vdW

System changes: positions, numbers, cell, pbc, initial_charges, initial_magmoms 

Initialize ...

species:
  Na:
    name: Sodium
    id: d7ecbc49209718622bcbe287195dca2a
    Z: 11.0
    valence: 7
    core: 4
    charge: 0.0
    file: /home/vazumah/.conda/envs/GPAW/share/gpaw/Na.PBE.gz
    compensation charges: {type: gauss,
                           rc: 0.37,
                           lmax: 2}
    cutoffs: {filter: 2.17,
              core: 2.59}
    valence states:
      #              energy  rcut
      - 3s(1.00)    -2.744   1.201
      - 2p(6.00)   -28.672   1.217
      - 3p(0.00)    -0.743   1.217
      -  s          24.468   1.201
      -  d           0.000   1.238
  
    # Using partial waves for Na as LCAO basis

Reference energy: -159069.977916  # eV

Spin-paired calculation

Convergence criteria:
 Maximum [total energy] change in last 3 cyles: 0.0005 eV / electron
 Maximum integral of absolute [dens]ity change: 0.0001 electrons / valence electron
 Maximum integral of absolute [eigenst]ate change: 4e-08 eV^2 / valence electron
 Maximum number of scf [iter]ations: 999
 (Square brackets indicate name in SCF output, whereas a 'c' in
 the SCF output indicates the quantity has converged.)

Symmetries present (total): 4

  ( 1  0  0)  ( 1  0  0)  (-1  0  0)  (-1  0  0)
  ( 1 -1  0)  ( 0  1  0)  ( 0 -1  0)  (-1  1  0)
  ( 0  0  1)  ( 0  0  1)  ( 0  0  1)  ( 0  0  1)
Note: your k-points are not as symmetric as your crystal!

16 k-points: 4 x 4 x 1 Monkhorst-Pack grid
8 k-points in the irreducible part of the Brillouin zone
       k-points in crystal coordinates                weights
   0:     0.12500000   -0.37500000    0.00000000          2/16
   1:     0.12500000   -0.12500000    0.00000000          2/16
   2:     0.12500000    0.12500000    0.00000000          2/16
   3:     0.12500000    0.37500000    0.00000000          2/16
   4:     0.37500000   -0.37500000    0.00000000          2/16
   5:     0.37500000   -0.12500000    0.00000000          2/16
   6:     0.37500000    0.12500000    0.00000000          2/16
   7:     0.37500000    0.37500000    0.00000000          2/16

Wave functions: Uniform real-space grid
  Kinetic energy operator: 8*3+1=25 point O(h^6) finite-difference Laplacian
  ScaLapack parameters: grid=1x1, blocksize=None
  Wavefunction extrapolation:
    Improved wavefunction reuse through dual PAW basis 

Occupation numbers: Fermi-Dirac:
  width: 0.0500  # eV
 

Eigensolver
   Davidson(niter=3) 

Densities:
  Coarse grid: 64*64*180 grid
  Fine grid: 128*128*360 grid
  Total Charge: 0.000000 

Density mixing:
  Method: separate
  Backend: pulay
  Linear mixing parameter: 0.02
  old densities: 5
  Damping of long wavelength oscillations: 100 

Hamiltonian:
  XC and Coulomb potentials evaluated on a 128*128*360 grid
  Using the BEEF-vdW Exchange-Correlation functional
  Interpolation: tri-quintic (5. degree polynomial)
  Poisson solver: FastPoissonSolver using
    Stencil: 8*3+1=25 point O(h^6) finite-difference Laplacian
    FFT axes: [0, 1]
    FST axes: [2]

Dipole correction along z-axis 

XC parameters: BEEF-vdW with 2 nearest neighbor stencil

Memory estimate:
  Process memory now: 259.89 MiB
  Calculator: 1384.97 MiB
    Density: 161.96 MiB
      Arrays: 48.31 MiB
      Localized functions: 95.21 MiB
      Mixer: 18.44 MiB
    Hamiltonian: 38.60 MiB
      Arrays: 31.59 MiB
      XC: 0.00 MiB
      Poisson: 0.00 MiB
      vbar: 7.00 MiB
    Wavefunctions: 1184.41 MiB
      Arrays psit_nG: 575.25 MiB
      Eigensolver: 597.41 MiB
      Projections: 0.37 MiB
      Projectors: 11.38 MiB

Total number of cores used: 24
Parallelization over k-points: 8
Domain decomposition: 1 x 1 x 3

Number of atoms: 36
Number of atomic orbitals: 252
Number of bands in calculation: 156
Number of valence electrons: 252
Bands to converge: occupied

... initialized

Initializing position-dependent things.

Density initialized from atomic densities
Creating initial wave functions:
  156 bands from LCAO basis set

                                                     
                                                     
                                                     
                                                     
                                                     
                                                     
                     Na         Na        Na         
              Na       NaNa      NaNa       Na       
                                                     
       Na       NaNa      NaNa       Na              
                                                     
         Na        Na         Na                     
                                                     
                     Na         Na        Na         
                                                     
              Na       NaNa      NaNa       Na       
                                                     
       Na       NaNa      NaNa       Na              
         Na        Na         Na                     
                                                     
                                                     
                                                     
                                                     
                                                     
                                                     

Positions:
   0 Na     0.000000    2.991062   10.000000    ( 0.0000,  0.0000,  0.0000)
   1 Na     4.230000    2.991062   10.000000    ( 0.0000,  0.0000,  0.0000)
   2 Na     8.460000    2.991062   10.000000    ( 0.0000,  0.0000,  0.0000)
   3 Na     2.115000    5.982123   10.000000    ( 0.0000,  0.0000,  0.0000)
   4 Na     6.345000    5.982123   10.000000    ( 0.0000,  0.0000,  0.0000)
   5 Na    10.575000    5.982123   10.000000    ( 0.0000,  0.0000,  0.0000)
   6 Na     4.230000    8.973185   10.000000    ( 0.0000,  0.0000,  0.0000)
   7 Na     8.460000    8.973185   10.000000    ( 0.0000,  0.0000,  0.0000)
   8 Na    12.690000    8.973185   10.000000    ( 0.0000,  0.0000,  0.0000)
   9 Na     0.000000    0.000000   12.991062    ( 0.0000,  0.0000,  0.0000)
  10 Na     4.230000    0.000000   12.991062    ( 0.0000,  0.0000,  0.0000)
  11 Na     8.460000    0.000000   12.991062    ( 0.0000,  0.0000,  0.0000)
  12 Na     2.115000    2.991062   12.991062    ( 0.0000,  0.0000,  0.0000)
  13 Na     6.345000    2.991062   12.991062    ( 0.0000,  0.0000,  0.0000)
  14 Na    10.575000    2.991062   12.991062    ( 0.0000,  0.0000,  0.0000)
  15 Na     4.230000    5.982123   12.991062    ( 0.0000,  0.0000,  0.0000)
  16 Na     8.460000    5.982123   12.991062    ( 0.0000,  0.0000,  0.0000)
  17 Na    12.690000    5.982123   12.991062    ( 0.0000,  0.0000,  0.0000)
  18 Na     0.000000    2.991062   15.982123    ( 0.0000,  0.0000,  0.0000)
  19 Na     4.230000    2.991062   15.982123    ( 0.0000,  0.0000,  0.0000)
  20 Na     8.460000    2.991062   15.982123    ( 0.0000,  0.0000,  0.0000)
  21 Na     2.115000    5.982123   15.982123    ( 0.0000,  0.0000,  0.0000)
  22 Na     6.345000    5.982123   15.982123    ( 0.0000,  0.0000,  0.0000)
  23 Na    10.575000    5.982123   15.982123    ( 0.0000,  0.0000,  0.0000)
  24 Na     4.230000    8.973185   15.982123    ( 0.0000,  0.0000,  0.0000)
  25 Na     8.460000    8.973185   15.982123    ( 0.0000,  0.0000,  0.0000)
  26 Na    12.690000    8.973185   15.982123    ( 0.0000,  0.0000,  0.0000)
  27 Na     0.000000    0.000000   18.973185    ( 0.0000,  0.0000,  0.0000)
  28 Na     4.230000    0.000000   18.973185    ( 0.0000,  0.0000,  0.0000)
  29 Na     8.460000    0.000000   18.973185    ( 0.0000,  0.0000,  0.0000)
  30 Na     2.115000    2.991062   18.973185    ( 0.0000,  0.0000,  0.0000)
  31 Na     6.345000    2.991062   18.973185    ( 0.0000,  0.0000,  0.0000)
  32 Na    10.575000    2.991062   18.973185    ( 0.0000,  0.0000,  0.0000)
  33 Na     4.230000    5.982123   18.973185    ( 0.0000,  0.0000,  0.0000)
  34 Na     8.460000    5.982123   18.973185    ( 0.0000,  0.0000,  0.0000)
  35 Na    12.690000    5.982123   18.973185    ( 0.0000,  0.0000,  0.0000)

Unit cell:
           periodic     x           y           z      points  spacing
  1. axis:    yes   12.690000    0.000000    0.000000    64     0.1619
  2. axis:    yes    6.345000    8.973185    0.000000    64     0.1402
  3. axis:    no     0.000000    0.000000   28.973185   180     0.1610

  Lengths:  12.690000  10.989862  28.973185
  Angles:   90.000000  90.000000  54.735610

Effective grid spacing dv^(1/3) = 0.1648

     iter     time        total  log10-change:
                         energy  eigst   dens
iter:   1 23:19:55  -764.854107
iter:   2 23:32:38  -765.037312  -0.75  -1.52
iter:   3 23:45:11  -764.770792  -1.32  -1.56
iter:   4 23:57:48  -764.811641  -1.64  -1.68
Writing to output.gpw (mode='')

iter:   5 00:10:24  -764.831441c -2.03  -1.69
iter:   6 00:22:59  -765.055081  -1.87  -1.80
iter:   7 00:35:54  -765.097444  -1.83  -2.07
iter:   8 00:48:46  -765.108725c -2.59  -2.03
iter:   9 01:01:35  -764.999470c -2.74  -2.01
Writing to output.gpw (mode='')

iter:  10 01:14:33  -764.952408  -2.64  -2.21
iter:  11 01:27:21  -764.957981c -2.87  -2.77
iter:  12 01:39:58  -764.950679c -3.77  -2.70
iter:  13 01:52:47  -764.937835c -3.09  -2.80
iter:  14 02:05:50  -764.937766c -3.45  -3.09
Writing to output.gpw (mode='')

iter:  15 02:18:53  -764.937224c -3.89  -3.33
iter:  16 02:31:41  -764.937393c -4.29  -3.30
iter:  17 02:44:16  -764.937832c -3.48  -3.25
iter:  18 02:56:58  -764.938259c -3.15  -3.17
iter:  19 03:08:08  -764.937981c -3.72  -3.30
Writing to output.gpw (mode='')

iter:  20 03:18:26  -764.936548c -4.33  -3.17
iter:  21 03:31:06  -764.936636c -4.54  -3.34
iter:  22 03:43:58  -764.936550c -4.99  -3.39
iter:  23 03:56:48  -764.936410c -4.90  -3.46
iter:  24 04:09:29  -764.935992c -4.83  -3.46
Writing to output.gpw (mode='')

iter:  25 04:22:21  -764.936031c -5.31  -3.60
iter:  26 04:35:03  -764.936114c -4.96  -3.63
iter:  27 04:48:04  -764.936034c -5.10  -3.68
iter:  28 05:00:57  -764.936133c -5.08  -3.71
iter:  29 05:13:41  -764.936080c -5.05  -3.69
Writing to output.gpw (mode='')

iter:  30 05:26:31  -764.936013c -5.12  -4.07c
iter:  31 05:39:13  -764.936020c -5.59  -4.27c
iter:  32 05:51:56  -764.936014c -6.06  -4.23c
iter:  33 06:04:31  -764.936023c -6.03  -4.23c
iter:  34 06:17:10  -764.936026c -6.44  -4.21c
Writing to output.gpw (mode='')

iter:  35 06:29:53  -764.936024c -6.81  -4.18c
iter:  36 06:42:36  -764.936021c -6.01  -4.19c
iter:  37 06:55:19  -764.936024c -6.22  -4.21c
iter:  38 07:08:08  -764.936034c -6.22  -4.21c
iter:  39 07:20:54  -764.936028c -6.71  -4.24c
Writing to output.gpw (mode='')

iter:  40 07:33:40  -764.936018c -5.77  -4.25c
iter:  41 07:46:22  -764.936055c -5.27  -4.29c
iter:  42 07:59:09  -764.936292c -3.51  -4.32c
iter:  43 08:12:03  -764.936435c -3.72  -4.38c
iter:  44 08:24:51  -764.936095c -4.21  -4.40c
Writing to output.gpw (mode='')

iter:  45 08:37:35  -764.936283c -4.69  -4.47c
iter:  46 08:50:18  -764.936211c -5.70  -4.52c
iter:  47 09:02:56  -764.936018c -4.93  -4.54c
iter:  48 09:15:52  -764.936028c -5.26  -4.59c
iter:  49 09:28:51  -764.936024c -5.65  -4.62c
Writing to output.gpw (mode='')

iter:  50 09:41:32  -764.936041c -5.11  -4.64c
iter:  51 09:54:20  -764.936051c -4.48  -4.92c
iter:  52 10:07:09  -764.936061c -4.90  -4.99c
iter:  53 10:19:53  -764.936132c -4.76  -5.02c
iter:  54 10:32:32  -764.936126c -4.98  -5.14c
Writing to output.gpw (mode='')

iter:  55 10:45:18  -764.936150c -5.14  -5.14c
iter:  56 10:58:06  -764.936097c -4.64  -5.12c
iter:  57 11:10:55  -764.936192c -4.48  -5.20c
iter:  58 11:23:59  -764.936160c -4.86  -5.18c
iter:  59 11:36:41  -764.936316c -4.48  -5.17c
Writing to output.gpw (mode='')

iter:  60 11:49:25  -764.936353c -4.41  -5.10c
iter:  61 12:02:19  -764.936370c -4.55  -5.10c
iter:  62 12:15:17  -764.936757c -3.83  -5.09c
iter:  63 12:28:11  -764.936526c -4.39  -4.90c
iter:  64 12:40:56  -764.936460c -4.68  -5.00c
Writing to output.gpw (mode='')

iter:  65 12:53:37  -764.936620c -4.45  -5.01c
iter:  66 13:06:26  -764.935828c -3.97  -4.93c
iter:  67 13:19:14  -764.935896c -3.91  -4.99c
iter:  68 13:31:57  -764.935980c -4.20  -5.08c
iter:  69 13:44:43  -764.936062c -4.86  -5.17c
Writing to output.gpw (mode='')

iter:  70 13:57:26  -764.936152c -4.93  -5.20c
iter:  71 14:10:18  -764.936048c -4.53  -5.17c
iter:  72 14:23:06  -764.936075c -5.03  -5.27c
iter:  73 14:35:45  -764.936101c -5.43  -5.31c
iter:  74 14:48:32  -764.936082c -5.46  -5.35c
Writing to output.gpw (mode='')

iter:  75 15:01:22  -764.936115c -4.59  -5.39c
iter:  76 15:14:07  -764.936157c -4.45  -5.45c
iter:  77 15:27:01  -764.936076c -5.35  -5.44c
iter:  78 15:39:39  -764.936034c -5.28  -5.50c
iter:  79 15:52:37  -764.936039c -5.12  -5.52c
Writing to output.gpw (mode='')

iter:  80 16:05:25  -764.936157c -5.10  -5.58c
iter:  81 16:17:59  -764.936113c -5.12  -5.67c
iter:  82 16:30:40  -764.936099c -5.25  -5.72c
iter:  83 16:43:21  -764.936108c -5.69  -5.73c
iter:  84 16:56:13  -764.936082c -5.87  -5.75c
Writing to output.gpw (mode='')

iter:  85 17:08:54  -764.936072c -5.55  -5.73c
iter:  86 17:20:31  -764.936080c -6.06  -5.76c
iter:  87 17:27:34  -764.936088c -6.02  -5.77c
iter:  88 17:34:37  -764.936079c -6.63  -5.79c
iter:  89 17:44:04  -764.936069c -6.56  -5.77c
Writing to output.gpw (mode='')

iter:  90 17:56:51  -764.936055c -5.63  -5.78c
iter:  91 18:09:36  -764.936046c -5.65  -5.85c
iter:  92 18:22:12  -764.936072c -5.60  -5.90c
iter:  93 18:34:48  -764.936069c -6.69  -5.93c
iter:  94 18:47:25  -764.936060c -5.96  -5.94c
Writing to output.gpw (mode='')

iter:  95 19:00:05  -764.936058c -6.40  -5.96c
iter:  96 19:12:49  -764.936057c -6.27  -5.97c
iter:  97 19:25:35  -764.936057c -6.76  -5.96c
iter:  98 19:38:27  -764.936058c -6.67  -5.94c
iter:  99 19:48:23  -764.936063c -6.45  -5.94c
Writing to output.gpw (mode='')

iter: 100 19:55:30  -764.936056c -6.78  -5.92c
iter: 101 20:02:35  -764.936050c -5.77  -5.95c
iter: 102 20:09:42  -764.936057c -6.15  -5.96c
iter: 103 20:16:46  -764.936084c -5.88  -5.96c
iter: 104 20:23:51  -764.936062c -5.91  -5.87c
Writing to output.gpw (mode='')

iter: 105 20:30:58  -764.936067c -6.11  -5.96c
iter: 106 20:38:02  -764.936078c -6.13  -5.92c
iter: 107 20:45:04  -764.936056c -6.33  -5.91c
iter: 108 20:52:08  -764.936035c -5.93  -6.02c
iter: 109 20:59:13  -764.936031c -6.12  -6.10c
Writing to output.gpw (mode='')

iter: 110 21:06:16  -764.936032c -6.29  -6.11c
iter: 111 21:13:17  -764.936035c -6.39  -6.08c
iter: 112 21:20:17  -764.936032c -6.40  -6.05c
iter: 113 21:27:16  -764.936032c -6.86  -6.09c
iter: 114 21:34:15  -764.936032c -7.22  -6.07c
Writing to output.gpw (mode='')

iter: 115 21:41:18  -764.936034c -6.95  -6.06c
iter: 116 21:48:19  -764.936036c -6.84  -6.06c
iter: 117 21:55:20  -764.936035c -6.87  -6.06c
iter: 118 22:02:26  -764.936037c -7.09  -6.07c
iter: 119 22:09:31  -764.936034c -7.09  -6.07c
Writing to output.gpw (mode='')

iter: 120 22:16:39  -764.936049c -5.68  -6.10c
iter: 121 22:23:39  -764.936050c -6.17  -6.02c
iter: 122 22:30:39  -764.936046c -6.60  -6.05c
iter: 123 22:37:40  -764.936039c -6.74  -6.21c
iter: 124 22:44:41  -764.936033c -6.53  -6.35c
Writing to output.gpw (mode='')

iter: 125 22:54:42  -764.936031c -6.64  -6.43c
iter: 126 23:07:36  -764.936030c -6.65  -6.46c
iter: 127 23:20:09  -764.936030c -7.45c -6.50c

Converged after 127 iterations.

Dipole moment: (-10.017117, -7.121165, 0.000000) |e|*Ang

Energy contributions relative to reference atoms: (reference = -159069.977916)

Kinetic:       +197.665173
Potential:     -173.719173
External:        +0.000000
XC:            -787.564419
Entropy (-ST):   -0.156007
Local:           -1.239607
--------------------------
Free energy:   -765.014033
Extrapolated:  -764.936030

Dipole-layer corrected work functions: 3.056244, 3.056244 eV

Showing only first 2 kpts
 Kpt  Band  Eigenvalues  Occupancy
  0   124     -3.09419    1.36227
  0   125     -2.86324    0.04127
  0   126     -2.83487    0.02360
  0   127     -2.76025    0.00536

  1   124     -3.38420    1.99717
  1   125     -3.29380    1.98286
  1   126     -3.06512    1.08855
  1   127     -2.92543    0.13619


Fermi level: -3.05624

No gap
Writing to output.gpw (mode='')


Forces in eV/Ang:
  0 Na    0.00000    0.00104    0.01240
  1 Na    0.00160    0.00182    0.01265
  2 Na   -0.00160    0.00182    0.01265
  3 Na   -0.00160   -0.00182    0.01265
  4 Na    0.00000   -0.00104    0.01240
  5 Na    0.00160   -0.00182    0.01265
  6 Na    0.00305    0.00000    0.01567
  7 Na   -0.00305    0.00000    0.01567
  8 Na    0.00000    0.00000    0.01446
  9 Na    0.00000    0.00000   -0.00215
 10 Na    0.00384    0.00000   -0.00507
 11 Na   -0.00384    0.00000   -0.00507
 12 Na   -0.00339    0.00000   -0.00192
 13 Na    0.00000   -0.00119   -0.00119
 14 Na    0.00339    0.00000   -0.00192
 15 Na    0.00339   -0.00000   -0.00192
 16 Na   -0.00339   -0.00000   -0.00192
 17 Na    0.00000    0.00119   -0.00119
 18 Na    0.00000   -0.00119    0.00119
 19 Na    0.00339    0.00000    0.00192
 20 Na   -0.00339    0.00000    0.00192
 21 Na   -0.00339   -0.00000    0.00192
 22 Na    0.00000    0.00119    0.00119
 23 Na    0.00339   -0.00000    0.00192
 24 Na    0.00384    0.00000    0.00507
 25 Na   -0.00384    0.00000    0.00507
 26 Na    0.00000    0.00000    0.00215
 27 Na    0.00000    0.00000   -0.01446
 28 Na    0.00305    0.00000   -0.01567
 29 Na   -0.00305    0.00000   -0.01567
 30 Na   -0.00160    0.00182   -0.01265
 31 Na    0.00000    0.00104   -0.01240
 32 Na    0.00160    0.00182   -0.01265
 33 Na    0.00160   -0.00182   -0.01265
 34 Na   -0.00160   -0.00182   -0.01265
 35 Na    0.00000   -0.00104   -0.01240

Timing:                              incl.     excl.
-----------------------------------------------------------
Forces:                             48.788    48.788   0.1% |
Hamiltonian:                       139.682     0.000   0.0% |
 Atomic:                             0.154     0.006   0.0% |
  XC Correction:                     0.147     0.147   0.0% |
 Calculate atomic Hamiltonians:      0.904     0.904   0.0% |
 Communicate:                        0.782     0.782   0.0% |
 Hartree integrate/restrict:         0.380     0.380   0.0% |
 Initialize Hamiltonian:             0.000     0.000   0.0% |
 Poisson:                            2.934     0.348   0.0% |
  Communicate from 1D:               0.367     0.367   0.0% |
  Communicate from 2D:               0.417     0.417   0.0% |
  Communicate to 1D:                 0.209     0.209   0.0% |
  Communicate to 2D:                 0.564     0.564   0.0% |
  FFT 1D:                            0.494     0.494   0.0% |
  FFT 2D:                            0.535     0.535   0.0% |
 XC 3D grid:                       134.472    12.269   0.0% |
  VdW-DF integral:                 122.203     0.287   0.0% |
   Convolution:                      6.369     6.369   0.0% |
   FFT:                              1.243     1.243   0.0% |
   gather:                          85.517    85.517   0.1% |
   hmm1:                             1.172     1.172   0.0% |
   hmm2:                             1.627     1.627   0.0% |
   iFFT:                             1.284     1.284   0.0% |
   potential:                        9.403     0.100   0.0% |
    collect:                         0.772     0.772   0.0% |
    p1:                              3.757     3.757   0.0% |
    p2:                              2.445     2.445   0.0% |
    sum:                             2.328     2.328   0.0% |
   splines:                         15.301    15.301   0.0% |
 vbar:                               0.055     0.055   0.0% |
LCAO initialization:                47.349     0.076   0.0% |
 LCAO eigensolver:                   5.167     0.002   0.0% |
  Calculate projections:             0.000     0.000   0.0% |
  DenseAtomicCorrection:             0.000     0.000   0.0% |
  Distribute overlap matrix:         4.534     4.534   0.0% |
  Orbital Layouts:                   0.149     0.149   0.0% |
  Potential matrix:                  0.457     0.457   0.0% |
  Sum over cells:                    0.025     0.025   0.0% |
 LCAO to grid:                      40.260    40.260   0.0% |
 Set positions (LCAO WFS):           1.846     1.669   0.0% |
  Basic WFS set positions:           0.012     0.012   0.0% |
  Basis functions set positions:     0.001     0.001   0.0% |
  P tci:                             0.000     0.000   0.0% |
  ST tci:                            0.106     0.106   0.0% |
  mktci:                             0.058     0.058   0.0% |
SCF-cycle:                       87105.887   572.693   0.7% |
 Davidson:                       73711.367 20534.409  23.5% |--------|
  Apply hamiltonian:              3643.592  3643.592   4.2% |-|
  Subspace diag:                  9510.840     0.025   0.0% |
   calc_h_matrix:                 3679.641  1954.695   2.2% ||
    Apply hamiltonian:            1724.947  1724.947   2.0% ||
   diagonalize:                    120.763   120.763   0.1% |
   rotate_psi:                    5710.411  5710.411   6.5% |--|
  calc. matrices:                24323.129 19431.071  22.2% |--------|
   Apply hamiltonian:             4892.058  4892.058   5.6% |-|
  diagonalize:                     131.475   131.475   0.2% |
  rotate_psi:                    15567.921 15567.921  17.8% |------|
 Density:                          375.596     0.006   0.0% |
  Atomic density matrices:          52.238    52.238   0.1% |
  Mix:                              55.920    55.920   0.1% |
  Multipole moments:                 0.443     0.443   0.0% |
  Pseudo density:                  266.989   191.277   0.2% |
   Symmetrize density:              75.712    75.712   0.1% |
 Hamiltonian:                    12389.701     0.036   0.0% |
  Atomic:                           31.491     5.692   0.0% |
   XC Correction:                   25.799    25.799   0.0% |
  Calculate atomic Hamiltonians:    69.729    69.729   0.1% |
  Communicate:                      55.531    55.531   0.1% |
  Hartree integrate/restrict:       27.399    27.399   0.0% |
  Poisson:                         546.618   209.238   0.2% |
   Communicate from 1D:             46.772    46.772   0.1% |
   Communicate from 2D:             71.311    71.311   0.1% |
   Communicate to 1D:               19.507    19.507   0.0% |
   Communicate to 2D:               70.281    70.281   0.1% |
   FFT 1D:                          57.207    57.207   0.1% |
   FFT 2D:                          72.302    72.302   0.1% |
  XC 3D grid:                    11652.514  1463.276   1.7% ||
   VdW-DF integral:              10189.238    27.672   0.0% |
    Convolution:                   744.993   744.993   0.9% |
    FFT:                           155.940   155.940   0.2% |
    gather:                       7678.912  7678.912   8.8% |---|
    hmm1:                          149.452   149.452   0.2% |
    hmm2:                          209.357   209.357   0.2% |
    iFFT:                          163.977   163.977   0.2% |
    potential:                    1058.934    13.109   0.0% |
     collect:                       90.216    90.216   0.1% |
     p1:                           426.838   426.838   0.5% |
     p2:                           293.633   293.633   0.3% |
     sum:                          235.138   235.138   0.3% |
    splines:                         0.001     0.001   0.0% |
  vbar:                              6.383     6.383   0.0% |
 Orthonormalize:                    56.531     0.000   0.0% |
  calc_s_matrix:                     9.102     9.102   0.0% |
  inverse-cholesky:                  0.022     0.022   0.0% |
  projections:                      23.758    23.758   0.0% |
  rotate_psi_s:                     23.649    23.649   0.0% |
Set symmetry:                        0.006     0.006   0.0% |
Other:                              29.840    29.840   0.0% |
-----------------------------------------------------------
Total:                                     87371.552 100.0%

Memory usage: 3.23 GiB
Date: Wed Jan 18 23:20:59 2023
