
  ___ ___ ___ _ _ _  
 |   |   |_  | | | | 
 | | | | | . | | | | 
 |__ |  _|___|_____|  22.8.0
 |___|_|             

User:   vazumah@c10.hercules
Date:   Sun Feb 12 10:26:22 2023
Arch:   x86_64
Pid:    12225
CWD:    /home/vazumah/Python_projects/LiNRR/autocad_start/slab_experiments/free_slabs/Ca/fcc100/substrate
Python: 3.10.8
gpaw:   /home/vazumah/.conda/envs/GPAW/lib/python3.10/site-packages/gpaw
_gpaw:  /home/vazumah/.conda/envs/GPAW/lib/python3.10/site-packages/
        _gpaw.cpython-310-x86_64-linux-gnu.so
ase:    /home/vazumah/.conda/envs/GPAW/lib/python3.10/site-packages/ase (version 3.22.1)
numpy:  /home/vazumah/.conda/envs/GPAW/lib/python3.10/site-packages/numpy (version 1.24.1)
scipy:  /home/vazumah/.conda/envs/GPAW/lib/python3.10/site-packages/scipy (version 1.10.0)
libxc:  5.2.3
units:  Angstrom and eV
cores: 24
OpenMP: True
OMP_NUM_THREADS: 1

Input parameters:
  eigensolver: {name: dav,
                niter: 3}
  h: 0.16
  kpts: {size: [1, 1, 1]}
  maxiter: 999
  mixer: {backend: pulay,
          beta: 0.01,
          method: difference,
          nmaxold: 5,
          weight: 100}
  occupations: {name: fermi-dirac,
                width: 0.05}
  poissonsolver: {dipolelayer: xy}
  xc: BEEF-vdW

System changes: positions, numbers, cell, pbc, initial_charges, initial_magmoms 

Initialize ...

species:
  Ca:
    name: Calcium
    id: 0641b8f64fa1d43c6d3de45527ace046
    Z: 20.0
    valence: 10
    core: 10
    charge: 0.0
    file: /home/vazumah/.conda/envs/GPAW/share/gpaw/Ca.PBE.gz
    compensation charges: {type: gauss,
                           rc: 0.37,
                           lmax: 2}
    cutoffs: {filter: 2.10,
              core: 1.17}
    valence states:
      #              energy  rcut
      - 3s(2.00)   -47.086   1.175
      - 4s(2.00)    -3.766   1.175
      - 3p(6.00)   -28.008   1.154
      -  p          -0.797   1.154
      -  d           0.000   0.937
  
    # Using partial waves for Ca as LCAO basis

Reference energy: -666391.292358  # eV

Spin-paired calculation

Convergence criteria:
 Maximum [total energy] change in last 3 cyles: 0.0005 eV / electron
 Maximum integral of absolute [dens]ity change: 0.0001 electrons / valence electron
 Maximum integral of absolute [eigenst]ate change: 4e-08 eV^2 / valence electron
 Maximum number of scf [iter]ations: 999
 (Square brackets indicate name in SCF output, whereas a 'c' in
 the SCF output indicates the quantity has converged.)

Symmetries present (total): 8

  ( 1  0  0)  ( 1  0  0)  ( 0  1  0)  ( 0  1  0)  ( 0 -1  0)  ( 0 -1  0)
  ( 0  1  0)  ( 0 -1  0)  ( 1  0  0)  (-1  0  0)  ( 1  0  0)  (-1  0  0)
  ( 0  0  1)  ( 0  0  1)  ( 0  0  1)  ( 0  0  1)  ( 0  0  1)  ( 0  0  1)

  (-1  0  0)  (-1  0  0)
  ( 0  1  0)  ( 0 -1  0)
  ( 0  0  1)  ( 0  0  1)

1 k-point (Gamma)
1 k-point in the irreducible part of the Brillouin zone
       k-points in crystal coordinates                weights
   0:     0.00000000    0.00000000    0.00000000          1/1

Wave functions: Uniform real-space grid
  Kinetic energy operator: 6*3+1=19 point O(h^6) finite-difference Laplacian
  ScaLapack parameters: grid=1x1, blocksize=None
  Wavefunction extrapolation:
    Improved wavefunction reuse through dual PAW basis 

Occupation numbers: Fermi-Dirac:
  width: 0.0500  # eV
 

Eigensolver
   Davidson(niter=3) 

Densities:
  Coarse grid: 72*72*176 grid
  Fine grid: 144*144*352 grid
  Total Charge: 0.000000 

Density mixing:
  Method: separate
  Backend: pulay
  Linear mixing parameter: 0.01
  old densities: 5
  Damping of long wavelength oscillations: 100 

Hamiltonian:
  XC and Coulomb potentials evaluated on a 144*144*352 grid
  Using the BEEF-vdW Exchange-Correlation functional
  Interpolation: tri-quintic (5. degree polynomial)
  Poisson solver: FastPoissonSolver using
    Stencil: 6*3+1=19 point O(h^6) finite-difference Laplacian
    FFT axes: [0, 1]
    FST axes: [2]

Dipole correction along z-axis 

XC parameters: BEEF-vdW with 2 nearest neighbor stencil

Memory estimate:
  Process memory now: 105.66 MiB
  Calculator: 134.79 MiB
    Density: 20.62 MiB
      Arrays: 7.46 MiB
      Localized functions: 10.29 MiB
      Mixer: 2.87 MiB
    Hamiltonian: 5.69 MiB
      Arrays: 4.87 MiB
      XC: 0.00 MiB
      Poisson: 0.00 MiB
      vbar: 0.81 MiB
    Wavefunctions: 108.49 MiB
      Arrays psit_nG: 51.61 MiB
      Eigensolver: 55.52 MiB
      Projections: 0.03 MiB
      Projectors: 1.32 MiB

Total number of cores used: 24
Domain decomposition: 2 x 2 x 6

Number of atoms: 36
Number of atomic orbitals: 180
Number of bands in calculation: 180
Number of valence electrons: 360
Bands to converge: occupied

... initialized

Initializing position-dependent things.

Density initialized from atomic densities
Creating initial wave functions:
  180 bands from LCAO basis set

        .----------------------------.  
       /|                            |  
      / |                            |  
     /  |                            |  
    /   |                            |  
   /    |                            |  
  /     |                            |  
 *      |                            |  
 |      |                            |  
 |      |                            |  
 |      |                            |  
 |      |                            |  
 |      |                            |  
 |      |                            |  
 |      |                            |  
 |    Ca|      Ca        Ca          |  
 |      |                            |  
 | Ca   |   CCa      CaCa      Ca    |  
 |      |                            |  
 Ca     |CaCa      CCa       Ca      |  
 |      |                            |  
 |      |                            |  
 |    CCa      CaCa      CCa         |  
 |      |                            |  
 | Ca   |   CCa      CaCa      Ca    |  
 |      |                            |  
 Ca     |CaCa      CCa       Ca      |  
 |      |                            |  
 |     Ca        Ca       Ca         |  
 |      |                            |  
 |      |                            |  
 |      |                            |  
 |      |                            |  
 |      |                            |  
 |      |                            |  
 |      .----------------------------.  
 |     /                            /   
 |    /                            /    
 |   /                            /     
 |  /                            /      
 | /                            /       
 |/                            /        
 *----------------------------*         

Positions:
   0 Ca     1.972828    1.972828   10.000000    ( 0.0000,  0.0000,  0.0000)
   1 Ca     5.918484    1.972828   10.000000    ( 0.0000,  0.0000,  0.0000)
   2 Ca     9.864140    1.972828   10.000000    ( 0.0000,  0.0000,  0.0000)
   3 Ca     1.972828    5.918484   10.000000    ( 0.0000,  0.0000,  0.0000)
   4 Ca     5.918484    5.918484   10.000000    ( 0.0000,  0.0000,  0.0000)
   5 Ca     9.864140    5.918484   10.000000    ( 0.0000,  0.0000,  0.0000)
   6 Ca     1.972828    9.864140   10.000000    ( 0.0000,  0.0000,  0.0000)
   7 Ca     5.918484    9.864140   10.000000    ( 0.0000,  0.0000,  0.0000)
   8 Ca     9.864140    9.864140   10.000000    ( 0.0000,  0.0000,  0.0000)
   9 Ca     0.000000    0.000000   12.790000    ( 0.0000,  0.0000,  0.0000)
  10 Ca     3.945656    0.000000   12.790000    ( 0.0000,  0.0000,  0.0000)
  11 Ca     7.891312    0.000000   12.790000    ( 0.0000,  0.0000,  0.0000)
  12 Ca     0.000000    3.945656   12.790000    ( 0.0000,  0.0000,  0.0000)
  13 Ca     3.945656    3.945656   12.790000    ( 0.0000,  0.0000,  0.0000)
  14 Ca     7.891312    3.945656   12.790000    ( 0.0000,  0.0000,  0.0000)
  15 Ca     0.000000    7.891312   12.790000    ( 0.0000,  0.0000,  0.0000)
  16 Ca     3.945656    7.891312   12.790000    ( 0.0000,  0.0000,  0.0000)
  17 Ca     7.891312    7.891312   12.790000    ( 0.0000,  0.0000,  0.0000)
  18 Ca     1.972828    1.972828   15.580000    ( 0.0000,  0.0000,  0.0000)
  19 Ca     5.918484    1.972828   15.580000    ( 0.0000,  0.0000,  0.0000)
  20 Ca     9.864140    1.972828   15.580000    ( 0.0000,  0.0000,  0.0000)
  21 Ca     1.972828    5.918484   15.580000    ( 0.0000,  0.0000,  0.0000)
  22 Ca     5.918484    5.918484   15.580000    ( 0.0000,  0.0000,  0.0000)
  23 Ca     9.864140    5.918484   15.580000    ( 0.0000,  0.0000,  0.0000)
  24 Ca     1.972828    9.864140   15.580000    ( 0.0000,  0.0000,  0.0000)
  25 Ca     5.918484    9.864140   15.580000    ( 0.0000,  0.0000,  0.0000)
  26 Ca     9.864140    9.864140   15.580000    ( 0.0000,  0.0000,  0.0000)
  27 Ca     0.000000    0.000000   18.370000    ( 0.0000,  0.0000,  0.0000)
  28 Ca     3.945656    0.000000   18.370000    ( 0.0000,  0.0000,  0.0000)
  29 Ca     7.891312    0.000000   18.370000    ( 0.0000,  0.0000,  0.0000)
  30 Ca     0.000000    3.945656   18.370000    ( 0.0000,  0.0000,  0.0000)
  31 Ca     3.945656    3.945656   18.370000    ( 0.0000,  0.0000,  0.0000)
  32 Ca     7.891312    3.945656   18.370000    ( 0.0000,  0.0000,  0.0000)
  33 Ca     0.000000    7.891312   18.370000    ( 0.0000,  0.0000,  0.0000)
  34 Ca     3.945656    7.891312   18.370000    ( 0.0000,  0.0000,  0.0000)
  35 Ca     7.891312    7.891312   18.370000    ( 0.0000,  0.0000,  0.0000)

Unit cell:
           periodic     x           y           z      points  spacing
  1. axis:    yes   11.836968    0.000000    0.000000    72     0.1644
  2. axis:    yes    0.000000   11.836968    0.000000    72     0.1644
  3. axis:    no     0.000000    0.000000   28.370000   176     0.1612

  Lengths:  11.836968  11.836968  28.370000
  Angles:   90.000000  90.000000  90.000000

Effective grid spacing dv^(1/3) = 0.1633

     iter     time        total  log10-change:
                         energy  eigst   dens
iter:   1 10:32:06 -1553.009913
iter:   2 10:37:05 -1561.953616  +0.75  -1.65
iter:   3 10:42:03 -1567.758304  +0.43  -1.65
iter:   4 10:46:56 -1572.259498  +0.46  -1.63
Writing to output.gpw (mode='')

iter:   5 10:52:04 -1601.588206  +0.27  -1.59
iter:   6 10:56:57 -1610.838006  +0.95  -1.24
iter:   7 11:01:59 -1621.815513  +0.03  -1.17
iter:   8 11:07:05 -1623.603902  +0.45  -1.10
iter:   9 11:12:12 -1619.579680  -0.21  -1.07
Writing to output.gpw (mode='')

iter:  10 11:16:59 -1620.519755  -0.22  -1.07
iter:  11 11:21:50 -1588.148498  -0.40  -1.06
iter:  12 11:26:50 -1571.229508  +0.23  -1.18
iter:  13 11:31:46 -1576.659310  +0.82  -1.51
iter:  14 11:36:45 -1582.005209  +0.26  -1.70
Writing to output.gpw (mode='')

iter:  15 11:41:40 -1583.586357  -0.05  -1.81
iter:  16 11:46:42 -1585.430203  -0.29  -1.84
iter:  17 11:51:43 -1586.861694  +0.15  -1.86
iter:  18 11:56:35 -1590.059371  -0.24  -1.76
iter:  19 12:01:35 -1590.577898  +0.06  -1.59
Writing to output.gpw (mode='')

iter:  20 12:06:31 -1588.593674  -0.58  -1.52
iter:  21 12:11:34 -1586.995884  -0.79  -1.51
iter:  22 12:16:36 -1594.122819  -0.52  -1.54
iter:  23 12:21:24 -1595.646918  -0.21  -1.36
iter:  24 12:26:36 -1588.036231  -0.73  -1.32
Writing to output.gpw (mode='')

iter:  25 12:31:36 -1586.992574  -0.83  -1.37
iter:  26 12:36:43 -1583.252228  -0.43  -1.40
iter:  27 12:41:37 -1584.783859  +0.06  -1.67
iter:  28 12:46:40 -1586.366460  -0.95  -1.70
iter:  29 12:51:38 -1586.508128  -1.38  -1.71
Writing to output.gpw (mode='')

iter:  30 12:56:42 -1586.380294c -1.41  -1.70
iter:  31 13:01:54 -1593.480590  -0.50  -1.69
iter:  32 13:07:05 -1596.367718  -0.43  -1.38
iter:  33 13:12:15 -1590.098798  -0.85  -1.34
iter:  34 13:17:18 -1597.655042  -0.70  -1.37
Writing to output.gpw (mode='')

iter:  35 13:22:18 -1589.350735  -0.74  -1.28
iter:  36 13:27:28 -1589.093160  -1.13  -1.31
iter:  37 13:32:23 -1591.348948  -1.21  -1.33
iter:  38 13:37:27 -1582.710113  -0.18  -1.32
iter:  39 13:42:37 -1583.083940  -0.08  -1.58
Writing to output.gpw (mode='')

iter:  40 13:47:39 -1585.148947  -0.59  -1.64
iter:  41 13:52:40 -1591.201449  -0.52  -1.71
iter:  42 13:57:54 -1589.429023  -0.71  -1.48
iter:  43 14:03:02 -1592.620447  -1.17  -1.48
iter:  44 14:08:20 -1591.310312  -0.93  -1.38
Writing to output.gpw (mode='')

iter:  45 14:13:42 -1589.763208  -1.71  -1.37
iter:  46 14:19:08 -1598.174501  -0.50  -1.38
iter:  47 14:24:06 -1588.630073  -0.75  -1.26
iter:  48 14:29:12 -1589.709345  -1.02  -1.30
iter:  49 14:34:18 -1583.930455  -0.44  -1.29
Writing to output.gpw (mode='')

iter:  50 14:39:38 -1584.466245  -0.53  -1.48
iter:  51 14:44:53 -1583.164130  -0.68  -1.52
iter:  52 14:50:03 -1584.530103  -0.23  -1.60
iter:  53 14:55:13 -1585.656737  -0.75  -1.64
iter:  54 15:00:26 -1586.784012  -0.95  -1.65
Writing to output.gpw (mode='')

iter:  55 15:05:51 -1585.929437  -1.16  -1.64
iter:  56 15:10:57 -1585.791095  -1.31  -1.67
iter:  57 15:15:53 -1585.718385  -1.63  -1.69
iter:  58 15:20:56 -1585.689541c -0.86  -1.68
iter:  59 15:25:48 -1585.750417c -0.95  -1.72
Writing to output.gpw (mode='')

iter:  60 15:30:50 -1585.805308c -1.74  -1.73
iter:  61 15:35:57 -1590.503625  -0.34  -1.74
iter:  62 15:41:02 -1588.486529  -0.81  -1.49
iter:  63 15:46:12 -1584.787705  -1.06  -1.50
iter:  64 15:51:06 -1586.122614  -1.82  -1.69
Writing to output.gpw (mode='')

iter:  65 15:56:13 -1586.974100  -0.50  -1.67
iter:  66 16:01:28 -1586.272548  -0.64  -1.76
iter:  67 16:06:45 -1587.156952  -0.17  -1.85
iter:  68 16:11:53 -1587.661192  -0.73  -1.78
iter:  69 16:16:50 -1586.676569  -1.26  -1.71
Writing to output.gpw (mode='')

iter:  70 16:22:05 -1587.380778  -0.59  -1.77
iter:  71 16:27:04 -1587.755810  -0.64  -1.82
iter:  72 16:32:16 -1585.600200  -0.96  -1.78
iter:  73 16:37:38 -1586.202152  -0.73  -2.05
iter:  74 16:42:59 -1586.859182  -0.23  -2.24
Writing to output.gpw (mode='')

iter:  75 16:48:07 -1587.035384  -0.89  -2.08
iter:  76 16:53:06 -1587.043371  -0.84  -1.96
iter:  77 16:58:08 -1586.282319  -1.60  -1.91
iter:  78 17:03:09 -1586.482220  -2.12  -1.99
iter:  79 17:08:17 -1586.262727  -2.08  -1.95
Writing to output.gpw (mode='')

iter:  80 17:13:39 -1585.996407  -2.32  -1.99
iter:  81 17:18:35 -1585.819338  -1.46  -2.06
iter:  82 17:23:25 -1586.048349  -1.74  -2.31
iter:  83 17:28:36 -1586.249185  -2.18  -2.43
iter:  84 17:33:41 -1586.346392  -1.57  -2.22
Writing to output.gpw (mode='')

iter:  85 17:38:48 -1585.869032  -1.77  -2.14
iter:  86 17:43:46 -1585.928086  -1.24  -2.49
iter:  87 17:48:58 -1585.967948c -1.85  -2.58
iter:  88 17:54:06 -1585.997046c -2.28  -2.65
iter:  89 17:59:18 -1585.995838c -2.92  -2.66
Writing to output.gpw (mode='')

iter:  90 18:04:36 -1586.117455c -2.00  -2.69
iter:  91 18:09:32 -1586.226436  -1.48  -2.33
iter:  92 18:14:41 -1586.266144c -1.62  -2.21
iter:  93 18:19:41 -1586.027981  -2.15  -2.16
iter:  94 18:24:44 -1586.029552  -2.33  -2.27
Writing to output.gpw (mode='')

iter:  95 18:29:59 -1585.993963c -2.43  -2.30
iter:  96 18:34:58 -1586.188600  -2.04  -2.44
iter:  97 18:40:01 -1586.140470  -1.93  -2.25
iter:  98 18:44:54 -1586.021935c -2.60  -2.24
iter:  99 18:50:21 -1585.991522c -2.27  -2.32
Writing to output.gpw (mode='')

iter: 100 18:55:30 -1585.985762c -2.04  -2.38
iter: 101 19:00:43 -1586.002290c -2.07  -2.47
iter: 102 19:05:51 -1586.012868c -2.21  -2.50
iter: 103 19:11:01 -1586.033968c -1.93  -2.71
iter: 104 19:16:22 -1586.033324c -2.39  -2.69
Writing to output.gpw (mode='')

iter: 105 19:21:32 -1586.036445c -2.83  -2.70
iter: 106 19:26:43 -1586.042281c -2.77  -2.67
iter: 107 19:31:56 -1586.040221c -2.94  -2.63
iter: 108 19:36:58 -1586.033141c -3.34  -2.63
iter: 109 19:41:56 -1586.017748c -2.66  -2.66
Writing to output.gpw (mode='')

iter: 110 19:46:45 -1586.020616c -2.80  -3.07
iter: 111 19:51:51 -1586.022690c -2.92  -3.10
iter: 112 19:56:53 -1586.035267c -2.94  -3.08
iter: 113 20:02:01 -1586.039347c -2.40  -2.87
iter: 114 20:06:59 -1586.043394c -2.96  -2.78
Writing to output.gpw (mode='')

iter: 115 20:11:58 -1586.044573c -2.68  -2.71
iter: 116 20:17:10 -1586.045927c -3.16  -2.67
iter: 117 20:22:19 -1586.053533c -2.89  -2.64
iter: 118 20:27:28 -1586.047776c -2.87  -2.59
iter: 119 20:32:28 -1586.045747c -3.27  -2.57
Writing to output.gpw (mode='')

iter: 120 20:37:22 -1586.032453c -3.19  -2.57
iter: 121 20:42:20 -1586.022549c -2.80  -2.62
iter: 122 20:47:28 -1586.025479c -2.56  -2.79
iter: 123 20:52:34 -1586.033618c -3.07  -2.84
iter: 124 20:57:42 -1586.051453c -2.79  -2.80
Writing to output.gpw (mode='')

iter: 125 21:02:46 -1586.042503c -2.77  -2.70
iter: 126 21:07:57 -1586.041105c -3.28  -2.70
iter: 127 21:13:03 -1586.027916c -2.79  -2.70
iter: 128 21:18:17 -1586.030070c -2.81  -2.82
iter: 129 21:23:17 -1586.029656c -3.35  -2.82
Writing to output.gpw (mode='')

iter: 130 21:28:24 -1586.029494c -3.34  -2.89
iter: 131 21:33:38 -1586.029955c -3.71  -2.92
iter: 132 21:38:52 -1586.030999c -3.48  -2.96
iter: 133 21:43:55 -1586.041598c -2.84  -3.01
iter: 134 21:48:59 -1586.034929c -3.29  -2.81
Writing to output.gpw (mode='')

iter: 135 21:54:07 -1586.039777c -3.49  -2.82
iter: 136 21:59:17 -1586.030531c -3.08  -2.79
iter: 137 22:04:13 -1586.040093c -3.11  -2.96
iter: 138 22:09:26 -1586.030954c -3.09  -2.84
iter: 139 22:14:41 -1586.037576c -3.53  -2.87
Writing to output.gpw (mode='')

iter: 140 22:19:48 -1586.033815c -3.74  -2.88
iter: 141 22:24:52 -1586.038533c -3.67  -2.94
iter: 142 22:30:03 -1586.040626c -3.21  -2.86
iter: 143 22:35:03 -1586.031539c -3.01  -2.80
iter: 144 22:40:02 -1586.034735c -3.21  -2.97
Writing to output.gpw (mode='')

iter: 145 22:45:08 -1586.035032c -3.62  -3.02
iter: 146 22:50:05 -1586.037190c -3.38  -3.08
iter: 147 22:54:53 -1586.038168c -3.11  -2.99
iter: 148 22:59:53 -1586.042329c -3.37  -2.95
iter: 149 23:04:52 -1586.047178c -2.89  -2.85
Writing to output.gpw (mode='')

iter: 150 23:09:50 -1586.051616c -3.15  -2.78
iter: 151 23:15:00 -1586.049505c -3.03  -2.72
iter: 152 23:20:10 -1586.040108c -3.54  -2.68
iter: 153 23:25:09 -1586.039358c -3.69  -2.74
iter: 154 23:30:28 -1586.065312c -3.12  -2.75
Writing to output.gpw (mode='')

iter: 155 23:35:31 -1586.023838c -2.63  -2.57
iter: 156 23:40:28 -1586.037135c -3.33  -2.80
iter: 157 23:45:34 -1586.033737c -3.49  -2.80
iter: 158 23:50:39 -1586.040160c -3.33  -2.94
iter: 159 23:51:56 -1586.034760c -3.35  -2.86
Writing to output.gpw (mode='')

iter: 160 23:52:45 -1586.035849c -3.11  -2.98
iter: 161 23:53:32 -1586.037550c -3.57  -3.01
iter: 162 23:54:20 -1586.037556c -3.79  -2.95
iter: 163 23:55:08 -1586.038466c -4.02  -2.95
iter: 164 23:55:56 -1586.036815c -3.98  -2.92
Writing to output.gpw (mode='')

iter: 165 23:56:45 -1586.050205c -3.17  -2.94
iter: 166 23:57:33 -1586.049008c -3.23  -2.71
iter: 167 23:58:21 -1586.051606c -3.24  -2.70
iter: 168 23:59:08 -1586.049602c -3.54  -2.65
iter: 169 23:59:56 -1586.062263c -2.66  -2.66
Writing to output.gpw (mode='')

iter: 170 00:00:45 -1586.037623c -2.70  -2.71
iter: 171 00:01:33 -1586.072831c -2.45  -2.75
iter: 172 00:02:21 -1586.047740c -3.18  -2.64
iter: 173 00:03:09 -1586.203428c -2.02  -2.69
iter: 174 00:03:56 -1586.114094c -2.54  -2.21
Writing to output.gpw (mode='')

iter: 175 00:04:45 -1586.210991c -2.60  -2.25
iter: 176 00:05:33 -1586.049118c -2.38  -2.17
iter: 177 00:06:21 -1586.010710  -2.44  -2.26
iter: 178 00:07:08 -1585.979621c -1.86  -2.35
iter: 179 00:07:56 -1586.027741c -1.47  -2.72
Writing to output.gpw (mode='')

iter: 180 00:08:45 -1586.036467c -1.94  -2.75
iter: 181 00:09:33 -1586.032265c -2.73  -2.85
iter: 182 00:10:21 -1586.034542c -2.99  -3.05
iter: 183 00:11:08 -1586.039441c -2.75  -3.28
iter: 184 00:11:56 -1586.041454c -2.96  -3.13
Writing to output.gpw (mode='')

iter: 185 00:12:45 -1586.040151c -3.28  -3.04
iter: 186 00:13:33 -1586.048812c -3.26  -3.00
iter: 187 00:14:21 -1586.048088c -3.18  -2.82
iter: 188 00:15:08 -1586.067970c -3.22  -2.80
iter: 189 00:15:56 -1586.066624c -2.88  -2.60
Writing to output.gpw (mode='')

iter: 190 00:16:45 -1586.071553c -3.44  -2.58
iter: 191 00:17:33 -1586.081075c -2.93  -2.54
iter: 192 00:18:21 -1586.061266c -3.58  -2.49
iter: 193 00:19:09 -1586.055532c -4.10  -2.51
iter: 194 00:19:56 -1586.051880c -3.98  -2.52
Writing to output.gpw (mode='')

iter: 195 00:20:46 -1586.051129c -4.00  -2.52
iter: 196 00:21:33 -1586.061805c -1.91  -2.51
iter: 197 00:22:21 -1586.025780c -2.31  -2.58
iter: 198 00:23:09 -1586.031170c -2.42  -2.96
iter: 199 00:23:57 -1586.034755c -2.75  -3.10
Writing to output.gpw (mode='')

iter: 200 00:24:46 -1586.036589c -2.91  -3.21
iter: 201 00:25:33 -1586.037530c -3.35  -3.22
iter: 202 00:26:21 -1586.041146c -3.21  -3.20
iter: 203 00:27:09 -1586.037217c -3.81  -3.06
iter: 204 00:27:57 -1586.037592c -4.34  -3.13
Writing to output.gpw (mode='')

iter: 205 00:28:46 -1586.036713c -4.37  -3.15
iter: 206 00:29:33 -1586.036973c -3.64  -3.19
iter: 207 00:30:21 -1586.040146c -3.15  -3.32
iter: 208 00:31:09 -1586.040461c -3.11  -3.17
iter: 209 00:31:57 -1586.036548c -3.83  -3.10
Writing to output.gpw (mode='')

iter: 210 00:32:46 -1586.037676c -4.12  -3.21
iter: 211 00:33:34 -1586.040418c -3.68  -3.19
iter: 212 00:34:22 -1586.036940c -3.87  -3.06
iter: 213 00:35:09 -1586.037415c -4.03  -3.12
iter: 214 00:35:57 -1586.046829c -3.36  -3.13
Writing to output.gpw (mode='')

iter: 215 00:36:46 -1586.049993c -3.21  -2.85
iter: 216 00:37:34 -1586.047949c -3.38  -2.79
iter: 217 00:38:22 -1586.038678c -3.67  -2.78
iter: 218 00:39:10 -1586.041530c -3.92  -2.84
iter: 219 00:39:57 -1586.045897c -3.92  -2.84
Writing to output.gpw (mode='')

iter: 220 00:40:47 -1586.072584c -3.14  -2.80
iter: 221 00:41:34 -1586.022835c -2.40  -2.60
iter: 222 00:42:22 -1586.033481c -2.27  -2.98
iter: 223 00:43:10 -1586.040767c -2.85  -3.19
iter: 224 00:43:58 -1586.037508c -3.75  -3.07
Writing to output.gpw (mode='')

iter: 225 00:44:47 -1586.047056c -3.28  -3.12
iter: 226 00:45:35 -1586.044214c -3.60  -2.82
iter: 227 00:46:23 -1586.046442c -4.01  -2.82
iter: 228 00:47:10 -1586.046388c -3.62  -2.78
iter: 229 00:47:58 -1586.038301c -3.90  -2.76
Writing to output.gpw (mode='')

iter: 230 00:48:47 -1586.041345c -4.19  -2.87
iter: 231 00:49:35 -1586.044368c -4.09  -2.86
iter: 232 00:50:23 -1586.041665c -2.69  -2.81
iter: 233 00:51:11 -1586.041241c -2.87  -3.11
iter: 234 00:51:59 -1586.036856c -3.48  -3.11
Writing to output.gpw (mode='')

iter: 235 00:52:48 -1586.037423c -3.35  -3.45
iter: 236 00:53:35 -1586.038363c -3.81  -3.47
iter: 237 00:54:23 -1586.037917c -4.57  -3.48
iter: 238 00:55:11 -1586.038992c -3.81  -3.52
iter: 239 00:55:59 -1586.039509c -3.66  -3.29
Writing to output.gpw (mode='')

iter: 240 00:56:48 -1586.039817c -3.92  -3.23
iter: 241 00:57:36 -1586.037257c -3.87  -3.20
iter: 242 00:58:24 -1586.037531c -3.83  -3.42
iter: 243 00:59:12 -1586.038707c -4.36  -3.47
iter: 244 00:59:59 -1586.038479c -4.59  -3.34
Writing to output.gpw (mode='')

iter: 245 01:00:48 -1586.038306c -5.13  -3.32
iter: 246 01:01:36 -1586.038290c -5.28  -3.32
iter: 247 01:02:24 -1586.041315c -3.92  -3.30
iter: 248 01:03:12 -1586.040687c -3.92  -3.07
iter: 249 01:04:00 -1586.038256c -4.38  -3.05
Writing to output.gpw (mode='')

iter: 250 01:04:49 -1586.037064c -3.49  -3.15
iter: 251 01:05:36 -1586.037863c -3.23  -3.64
iter: 252 01:06:24 -1586.038702c -3.57  -3.73
iter: 253 01:07:12 -1586.038922c -3.47  -3.57
iter: 254 01:08:00 -1586.039959c -3.72  -3.47
Writing to output.gpw (mode='')

iter: 255 01:08:50 -1586.040491c -3.54  -3.29
iter: 256 01:09:38 -1586.041008c -3.81  -3.22
iter: 257 01:10:26 -1586.041389c -3.64  -3.15
iter: 258 01:11:14 -1586.040249c -3.99  -3.10
iter: 259 01:12:01 -1586.038270c -4.24  -3.09
Writing to output.gpw (mode='')

iter: 260 01:12:51 -1586.037861c -3.98  -3.20
iter: 261 01:13:38 -1586.038447c -4.24  -3.37
iter: 262 01:14:26 -1586.038598c -4.40  -3.36
iter: 263 01:15:14 -1586.037881c -3.79  -3.38
iter: 264 01:16:02 -1586.037639c -3.68  -3.49
Writing to output.gpw (mode='')

iter: 265 01:16:51 -1586.038827c -3.56  -3.56
iter: 266 01:17:39 -1586.039116c -3.59  -3.55
iter: 267 01:18:27 -1586.038992c -3.94  -3.46
iter: 268 01:19:15 -1586.038856c -4.10  -3.43
iter: 269 01:20:02 -1586.038835c -4.44  -3.40
Writing to output.gpw (mode='')

iter: 270 01:20:52 -1586.046641c -3.37  -3.38
iter: 271 01:21:39 -1586.044165c -3.43  -2.92
iter: 272 01:22:27 -1586.043007c -3.88  -2.91
iter: 273 01:23:15 -1586.042322c -3.48  -2.96
iter: 274 01:24:03 -1586.042162c -3.67  -2.91
Writing to output.gpw (mode='')

iter: 275 01:24:52 -1586.068288c -2.83  -2.91
iter: 276 01:25:40 -1586.059868c -2.37  -2.72
iter: 277 01:26:28 -1586.033513c -2.61  -2.72
iter: 278 01:27:15 -1586.029024c -2.67  -2.79
iter: 279 01:28:03 -1586.030864c -2.81  -2.86
Writing to output.gpw (mode='')

iter: 280 01:28:52 -1586.031070c -2.90  -2.99
iter: 281 01:29:40 -1586.033780c -2.66  -3.25
iter: 282 01:30:28 -1586.038722c -2.52  -3.40
iter: 283 01:31:16 -1586.039204c -2.82  -3.40
iter: 284 01:32:04 -1586.037481c -3.72  -3.38
Writing to output.gpw (mode='')

iter: 285 01:32:54 -1586.037611c -4.01  -3.59
iter: 286 01:33:41 -1586.039782c -3.65  -3.65
iter: 287 01:34:29 -1586.039490c -3.83  -3.40
iter: 288 01:35:17 -1586.039037c -3.96  -3.36
iter: 289 01:36:05 -1586.037653c -4.31  -3.31
Writing to output.gpw (mode='')

iter: 290 01:36:54 -1586.037814c -4.10  -3.37
iter: 291 01:37:42 -1586.038405c -4.71  -3.51
iter: 292 01:38:30 -1586.039629c -4.32  -3.50
iter: 293 01:39:18 -1586.037179c -3.95  -3.36
iter: 294 01:40:06 -1586.037468c -3.75  -3.49
Writing to output.gpw (mode='')

iter: 295 01:40:55 -1586.040835c -3.17  -3.64
iter: 296 01:41:43 -1586.037449c -3.71  -3.36
iter: 297 01:42:30 -1586.037272c -4.29  -3.51
iter: 298 01:43:18 -1586.037597c -4.00  -3.67
iter: 299 01:44:06 -1586.037724c -4.62  -3.74
Writing to output.gpw (mode='')

iter: 300 01:44:55 -1586.037790c -4.39  -3.85
iter: 301 01:45:43 -1586.037817c -4.87  -3.86
iter: 302 01:46:31 -1586.038070c -4.91  -3.86
iter: 303 01:47:19 -1586.037874c -4.23  -3.68
iter: 304 01:48:07 -1586.037962c -4.16  -3.76
Writing to output.gpw (mode='')

iter: 305 01:48:56 -1586.037949c -4.45  -3.77
iter: 306 01:49:44 -1586.037915c -5.35  -3.76
iter: 307 01:50:31 -1586.037900c -4.86  -3.75
iter: 308 01:51:19 -1586.038893c -4.18  -3.79
iter: 309 01:52:07 -1586.039958c -3.58  -3.55
Writing to output.gpw (mode='')

iter: 310 01:52:57 -1586.039227c -4.01  -3.40
iter: 311 01:53:45 -1586.038556c -4.63  -3.39
iter: 312 01:54:33 -1586.041913c -3.92  -3.39
iter: 313 01:55:20 -1586.039042c -4.35  -3.17
iter: 314 01:56:08 -1586.038821c -4.91  -3.20
Writing to output.gpw (mode='')

iter: 315 01:56:58 -1586.040828c -4.60  -3.21
iter: 316 01:57:46 -1586.036827c -3.94  -3.15
iter: 317 01:58:33 -1586.039011c -3.16  -3.24
iter: 318 01:59:21 -1586.041008c -2.94  -3.46
iter: 319 02:00:09 -1586.038171c -3.66  -3.34
Writing to output.gpw (mode='')

iter: 320 02:00:58 -1586.039880c -3.30  -3.45
iter: 321 02:01:46 -1586.040527c -3.29  -3.47
iter: 322 02:02:34 -1586.040237c -3.58  -3.39
iter: 323 02:03:22 -1586.041872c -3.71  -3.32
iter: 324 02:04:09 -1586.039829c -3.98  -3.21
Writing to output.gpw (mode='')

iter: 325 02:04:59 -1586.040757c -4.42  -3.21
iter: 326 02:05:47 -1586.042748c -3.97  -3.17
iter: 327 02:06:34 -1586.041142c -3.99  -3.09
iter: 328 02:07:22 -1586.038871c -4.81  -3.08
iter: 329 02:08:10 -1586.038472c -4.63  -3.12
Writing to output.gpw (mode='')

iter: 330 02:08:59 -1586.041217c -4.55  -3.14
iter: 331 02:09:47 -1586.043482c -2.70  -3.09
iter: 332 02:10:35 -1586.037525c -3.12  -3.18
iter: 333 02:11:23 -1586.036669c -3.61  -3.37
iter: 334 02:12:11 -1586.037098c -3.41  -3.59
Writing to output.gpw (mode='')

iter: 335 02:13:00 -1586.037495c -3.73  -3.80
iter: 336 02:13:48 -1586.037725c -3.97  -4.00
iter: 337 02:14:36 -1586.037926c -4.02  -4.08c
iter: 338 02:15:24 -1586.037977c -4.19  -4.02c
iter: 339 02:16:12 -1586.038578c -4.08  -3.92
Writing to output.gpw (mode='')

iter: 340 02:17:01 -1586.038572c -4.15  -3.60
iter: 341 02:17:49 -1586.038432c -4.50  -3.55
iter: 342 02:18:37 -1586.038371c -4.76  -3.52
iter: 343 02:19:25 -1586.037973c -4.97  -3.50
iter: 344 02:20:13 -1586.040431c -4.06  -3.54
Writing to output.gpw (mode='')

iter: 345 02:21:02 -1586.037431c -4.07  -3.27
iter: 346 02:21:50 -1586.037322c -4.25  -3.34
iter: 347 02:22:38 -1586.036837c -3.81  -3.41
iter: 348 02:23:26 -1586.037201c -3.78  -3.57
iter: 349 02:24:13 -1586.037809c -4.14  -3.68
Writing to output.gpw (mode='')

iter: 350 02:25:03 -1586.037675c -4.44  -3.64
iter: 351 02:25:50 -1586.037580c -4.32  -3.67
iter: 352 02:26:38 -1586.037616c -4.40  -3.82
iter: 353 02:27:26 -1586.037702c -4.32  -3.92
iter: 354 02:28:14 -1586.037800c -4.32  -4.04c
Writing to output.gpw (mode='')

iter: 355 02:29:03 -1586.037822c -5.20  -4.05c
iter: 356 02:29:51 -1586.037815c -5.48  -4.03c
iter: 357 02:30:39 -1586.037929c -4.77  -4.05c
iter: 358 02:31:27 -1586.037958c -4.21  -3.98
iter: 359 02:32:15 -1586.038880c -3.87  -3.94
Writing to output.gpw (mode='')

iter: 360 02:33:04 -1586.037561c -3.60  -3.61
iter: 361 02:33:52 -1586.038147c -4.29  -3.92
iter: 362 02:34:39 -1586.038028c -4.86  -3.76
iter: 363 02:35:27 -1586.037745c -4.80  -3.73
iter: 364 02:36:15 -1586.039926c -3.71  -3.85
Writing to output.gpw (mode='')

iter: 365 02:37:05 -1586.037232c -3.65  -3.43
iter: 366 02:37:53 -1586.037370c -4.23  -3.60
iter: 367 02:38:41 -1586.037814c -4.68  -3.70
iter: 368 02:39:29 -1586.037722c -4.82  -3.71
iter: 369 02:40:16 -1586.037799c -4.30  -3.89
Writing to output.gpw (mode='')

iter: 370 02:41:06 -1586.037828c -4.46  -4.04c
iter: 371 02:41:54 -1586.037833c -5.13  -4.05c
iter: 372 02:42:41 -1586.037964c -4.83  -4.04c
iter: 373 02:43:29 -1586.037985c -4.67  -3.91
iter: 374 02:44:17 -1586.037993c -5.15  -3.84
Writing to output.gpw (mode='')

iter: 375 02:45:06 -1586.038125c -4.62  -3.80
iter: 376 02:45:54 -1586.037663c -4.71  -3.64
iter: 377 02:46:42 -1586.037680c -4.41  -3.80
iter: 378 02:47:30 -1586.037788c -5.05  -3.91
iter: 379 02:48:18 -1586.038000c -4.49  -3.97
Writing to output.gpw (mode='')

iter: 380 02:49:07 -1586.037857c -4.83  -3.97
iter: 381 02:49:54 -1586.037903c -5.15  -4.07c
iter: 382 02:50:42 -1586.037787c -5.07  -4.01c
iter: 383 02:51:30 -1586.037809c -5.28  -4.16c
iter: 384 02:52:18 -1586.037852c -4.96  -4.21c
Writing to output.gpw (mode='')

iter: 385 02:53:07 -1586.037826c -5.28  -4.23c
iter: 386 02:53:55 -1586.037854c -5.80  -4.22c
iter: 387 02:54:43 -1586.037860c -5.26  -4.16c
iter: 388 02:55:30 -1586.037837c -5.99  -4.12c
iter: 389 02:56:18 -1586.037826c -6.39  -4.11c
Writing to output.gpw (mode='')

iter: 390 02:57:07 -1586.037814c -5.80  -4.16c
iter: 391 02:57:55 -1586.037862c -5.33  -4.24c
iter: 392 02:58:43 -1586.037814c -5.46  -4.15c
iter: 393 02:59:31 -1586.037823c -5.55  -4.21c
iter: 394 03:00:19 -1586.037826c -5.91  -4.30c
Writing to output.gpw (mode='')

iter: 395 03:01:10 -1586.037820c -5.64  -4.29c
iter: 396 03:01:58 -1586.037821c -5.97  -4.30c
iter: 397 03:02:45 -1586.037832c -5.85  -4.29c
iter: 398 03:03:33 -1586.037880c -4.91  -4.28c
iter: 399 03:04:21 -1586.037904c -4.63  -4.18c
Writing to output.gpw (mode='')

iter: 400 03:05:10 -1586.037857c -5.26  -4.10c
iter: 401 03:05:58 -1586.037806c -5.32  -4.10c
iter: 402 03:06:46 -1586.037818c -5.80  -4.32c
iter: 403 03:07:33 -1586.037818c -6.21  -4.34c
iter: 404 03:08:21 -1586.037828c -6.07  -4.33c
Writing to output.gpw (mode='')

iter: 405 03:09:10 -1586.037833c -5.84  -4.27c
iter: 406 03:09:58 -1586.037827c -5.82  -4.18c
iter: 407 03:10:46 -1586.037818c -6.04  -4.20c
iter: 408 03:11:34 -1586.037817c -6.08  -4.33c
iter: 409 03:12:22 -1586.037834c -5.65  -4.36c
Writing to output.gpw (mode='')

iter: 410 03:13:11 -1586.037812c -5.74  -4.24c
iter: 411 03:13:59 -1586.037816c -5.76  -4.33c
iter: 412 03:14:47 -1586.037820c -5.45  -4.41c
iter: 413 03:15:35 -1586.037828c -5.83  -4.42c
iter: 414 03:16:23 -1586.037825c -6.18  -4.38c
Writing to output.gpw (mode='')

iter: 415 03:17:12 -1586.037937c -5.11  -4.36c
iter: 416 03:18:00 -1586.038040c -4.68  -4.02c
iter: 417 03:18:48 -1586.037879c -5.46  -3.90
iter: 418 03:19:36 -1586.038068c -5.19  -3.92
iter: 419 03:20:23 -1586.038240c -4.79  -3.77
Writing to output.gpw (mode='')

iter: 420 03:21:12 -1586.038894c -4.26  -3.67
iter: 421 03:22:00 -1586.038053c -4.91  -3.52
iter: 422 03:22:48 -1586.037564c -4.43  -3.55
iter: 423 03:23:36 -1586.037703c -4.58  -3.82
iter: 424 03:24:24 -1586.038306c -4.71  -3.86
Writing to output.gpw (mode='')

iter: 425 03:25:13 -1586.038901c -4.27  -3.64
iter: 426 03:26:00 -1586.037841c -4.93  -3.51
iter: 427 03:26:48 -1586.038994c -4.64  -3.58
iter: 428 03:27:36 -1586.039493c -4.04  -3.42
iter: 429 03:28:24 -1586.038772c -4.66  -3.36
Writing to output.gpw (mode='')

iter: 430 03:29:13 -1586.038292c -5.10  -3.35
iter: 431 03:30:01 -1586.038213c -5.22  -3.38
iter: 432 03:30:48 -1586.041168c -4.12  -3.39
iter: 433 03:31:36 -1586.038845c -4.43  -3.17
iter: 434 03:32:24 -1586.036347c -3.64  -3.20
Writing to output.gpw (mode='')

iter: 435 03:33:13 -1586.037008c -3.84  -3.49
iter: 436 03:34:01 -1586.037615c -3.62  -3.56
iter: 437 03:34:49 -1586.037664c -3.82  -3.76
iter: 438 03:35:36 -1586.037883c -4.07  -3.97
iter: 439 03:36:24 -1586.038228c -3.91  -3.92
Writing to output.gpw (mode='')

iter: 440 03:37:13 -1586.037798c -4.50  -3.82
iter: 441 03:38:01 -1586.037771c -4.86  -3.94
iter: 442 03:38:49 -1586.037976c -4.67  -4.03c
iter: 443 03:39:36 -1586.037822c -4.16  -3.82
iter: 444 03:40:24 -1586.037887c -4.21  -4.23c
Writing to output.gpw (mode='')

iter: 445 03:41:13 -1586.037813c -5.17  -4.18c
iter: 446 03:42:01 -1586.037804c -5.39  -4.27c
iter: 447 03:42:49 -1586.037811c -5.32  -4.46c
iter: 448 03:43:37 -1586.037814c -5.58  -4.45c
iter: 449 03:44:25 -1586.037831c -5.78  -4.51c
Writing to output.gpw (mode='')

iter: 450 03:45:14 -1586.037815c -6.06  -4.37c
iter: 451 03:46:01 -1586.037827c -5.65  -4.46c
iter: 452 03:46:49 -1586.037821c -5.85  -4.43c
iter: 453 03:47:37 -1586.037814c -6.03  -4.43c
iter: 454 03:48:25 -1586.037816c -5.80  -4.56c
Writing to output.gpw (mode='')

iter: 455 03:49:15 -1586.037820c -6.03  -4.56c
iter: 456 03:50:03 -1586.037817c -6.43  -4.55c
iter: 457 03:50:51 -1586.037831c -5.82  -4.78c
iter: 458 03:51:39 -1586.037829c -5.85  -4.56c
iter: 459 03:52:27 -1586.037854c -5.86  -4.52c
Writing to output.gpw (mode='')

iter: 460 03:53:16 -1586.037852c -5.47  -4.26c
iter: 461 03:54:04 -1586.037846c -6.15  -4.22c
iter: 462 03:54:52 -1586.037871c -5.88  -4.19c
iter: 463 03:55:39 -1586.037897c -5.66  -4.10c
iter: 464 03:56:27 -1586.037835c -6.16  -4.03c
Writing to output.gpw (mode='')

iter: 465 03:57:16 -1586.037807c -6.18  -4.07c
iter: 466 03:58:04 -1586.037832c -6.65  -4.20c
iter: 467 03:58:52 -1586.037856c -6.37  -4.18c
iter: 468 03:59:40 -1586.037861c -6.00  -4.06c
iter: 469 04:00:28 -1586.037789c -5.58  -4.04c
Writing to output.gpw (mode='')

iter: 470 04:01:17 -1586.037804c -4.91  -4.43c
iter: 471 04:02:05 -1586.037821c -5.01  -4.68c
iter: 472 04:02:52 -1586.037817c -5.95  -4.63c
iter: 473 04:03:40 -1586.037818c -6.50  -4.76c
iter: 474 04:04:28 -1586.037818c -6.25  -4.78c
Writing to output.gpw (mode='')

iter: 475 04:05:17 -1586.037819c -6.26  -4.83c
iter: 476 04:06:05 -1586.037819c -6.63  -4.86c
iter: 477 04:06:53 -1586.037820c -6.56  -4.87c
iter: 478 04:07:41 -1586.037819c -6.51  -4.83c
iter: 479 04:08:29 -1586.037820c -6.89  -4.81c
Writing to output.gpw (mode='')

iter: 480 04:09:18 -1586.037818c -6.45  -4.76c
iter: 481 04:10:06 -1586.037818c -6.65  -4.88c
iter: 482 04:10:54 -1586.037823c -6.40  -4.91c
iter: 483 04:11:42 -1586.037822c -6.38  -4.72c
iter: 484 04:12:29 -1586.037824c -6.73  -4.68c
Writing to output.gpw (mode='')

iter: 485 04:13:21 -1586.037827c -6.32  -4.59c
iter: 486 04:14:09 -1586.037826c -6.41  -4.49c
iter: 487 04:14:57 -1586.037831c -6.50  -4.46c
iter: 488 04:15:45 -1586.037816c -6.29  -4.37c
iter: 489 04:16:32 -1586.037816c -6.17  -4.49c
Writing to output.gpw (mode='')

iter: 490 04:17:22 -1586.037818c -5.85  -4.56c
iter: 491 04:18:09 -1586.037818c -6.55  -4.68c
iter: 492 04:18:57 -1586.037818c -7.11  -4.79c
iter: 493 04:19:45 -1586.037822c -6.49  -4.82c
iter: 494 04:20:33 -1586.037820c -6.60  -4.72c
Writing to output.gpw (mode='')

iter: 495 04:21:22 -1586.037825c -5.88  -4.75c
iter: 496 04:22:10 -1586.037820c -6.42  -4.71c
iter: 497 04:22:58 -1586.037820c -7.21  -4.75c
iter: 498 04:23:46 -1586.037824c -6.42  -4.74c
iter: 499 04:24:33 -1586.037827c -6.26  -4.61c
Writing to output.gpw (mode='')

iter: 500 04:25:23 -1586.037825c -6.42  -4.53c
iter: 501 04:26:10 -1586.037816c -6.16  -4.50c
iter: 502 04:26:58 -1586.037817c -6.13  -4.90c
iter: 503 04:27:46 -1586.037818c -6.75  -5.01c
iter: 504 04:28:34 -1586.037826c -6.31  -5.08c
Writing to output.gpw (mode='')

iter: 505 04:29:23 -1586.037825c -6.30  -4.58c
iter: 506 04:30:11 -1586.037827c -6.61  -4.54c
iter: 507 04:30:59 -1586.037826c -6.52  -4.48c
iter: 508 04:31:47 -1586.037821c -7.23  -4.46c
iter: 509 04:32:35 -1586.037822c -7.64c -4.48c

Converged after 509 iterations.

Dipole moment: (-15.863552, -15.863552, -0.000867) |e|*Ang

Energy contributions relative to reference atoms: (reference = -666391.292358)

Kinetic:       +323.802242
Potential:     -219.424798
External:        +0.000000
XC:            -1672.939281
Entropy (-ST):   -0.000000
Local:          -17.475985
--------------------------
Free energy:   -1586.037822
Extrapolated:  -1586.037822

Dipole-layer corrected work functions: -inf, -inf eV

 Band  Eigenvalues  Occupancy
    0    -46.07305    2.00000
    1    -46.07194    2.00000
    2    -46.07037    2.00000
    3    -46.07037    2.00000
    4    -46.07037    2.00000
    5    -46.07037    2.00000
    6    -46.06926    2.00000
    7    -46.06926    2.00000
    8    -46.06926    2.00000
    9    -46.06926    2.00000
   10    -46.06773    2.00000
   11    -46.06773    2.00000
   12    -46.06773    2.00000
   13    -46.06773    2.00000
   14    -46.06662    2.00000
   15    -46.06662    2.00000
   16    -46.06662    2.00000
   17    -46.06662    2.00000
   18    -45.42331    2.00000
   19    -45.41874    2.00000
   20    -45.41874    2.00000
   21    -45.41874    2.00000
   22    -45.41874    2.00000
   23    -45.41599    2.00000
   24    -45.41510    2.00000
   25    -45.41510    2.00000
   26    -45.41510    2.00000
   27    -45.41510    2.00000
   28    -45.41505    2.00000
   29    -45.41505    2.00000
   30    -45.41505    2.00000
   31    -45.41505    2.00000
   32    -45.41319    2.00000
   33    -45.41319    2.00000
   34    -45.41319    2.00000
   35    -45.41319    2.00000
   36    -27.04218    2.00000
   37    -27.04109    2.00000
   38    -27.03775    2.00000
   39    -27.03775    2.00000
   40    -27.03775    2.00000
   41    -27.03775    2.00000
   42    -27.03666    2.00000
   43    -27.03666    2.00000
   44    -27.03666    2.00000
   45    -27.03666    2.00000
   46    -27.03316    2.00000
   47    -27.03316    2.00000
   48    -27.03316    2.00000
   49    -27.03316    2.00000
   50    -27.03207    2.00000
   51    -27.03207    2.00000
   52    -27.03207    2.00000
   53    -27.03207    2.00000
   54    -26.97276    2.00000
   55    -26.97276    2.00000
   56    -26.97276    2.00000
   57    -26.97276    2.00000
   58    -26.97166    2.00000
   59    -26.97166    2.00000
   60    -26.97166    2.00000
   61    -26.97166    2.00000
   62    -26.96846    2.00000
   63    -26.96846    2.00000
   64    -26.96846    2.00000
   65    -26.96846    2.00000
   66    -26.96769    2.00000
   67    -26.96769    2.00000
   68    -26.96769    2.00000
   69    -26.96769    2.00000
   70    -26.96735    2.00000
   71    -26.96735    2.00000
   72    -26.96735    2.00000
   73    -26.96735    2.00000
   74    -26.96659    2.00000
   75    -26.96659    2.00000
   76    -26.96659    2.00000
   77    -26.96659    2.00000
   78    -26.92844    2.00000
   79    -26.92844    2.00000
   80    -26.92734    2.00000
   81    -26.92734    2.00000
   82    -26.92473    2.00000
   83    -26.92473    2.00000
   84    -26.92473    2.00000
   85    -26.92473    2.00000
   86    -26.92362    2.00000
   87    -26.92362    2.00000
   88    -26.92362    2.00000
   89    -26.92362    2.00000
   90    -26.38066    2.00000
   91    -26.37969    2.00000
   92    -26.37969    2.00000
   93    -26.37969    2.00000
   94    -26.37969    2.00000
   95    -26.37577    2.00000
   96    -26.37577    2.00000
   97    -26.37577    2.00000
   98    -26.37577    2.00000
   99    -26.37530    2.00000
  100    -26.37530    2.00000
  101    -26.37530    2.00000
  102    -26.37530    2.00000
  103    -26.37078    2.00000
  104    -26.37078    2.00000
  105    -26.37078    2.00000
  106    -26.37078    2.00000
  107    -26.35705    2.00000
  108    -26.35705    2.00000
  109    -26.35705    2.00000
  110    -26.35705    2.00000
  111    -26.34284    2.00000
  112    -26.34284    2.00000
  113    -26.34284    2.00000
  114    -26.34284    2.00000
  115    -26.34076    2.00000
  116    -26.34076    2.00000
  117    -26.34076    2.00000
  118    -26.34076    2.00000
  119    -26.33842    2.00000
  120    -26.33842    2.00000
  121    -26.33842    2.00000
  122    -26.33842    2.00000
  123    -26.32795    2.00000
  124    -26.32795    2.00000
  125    -26.32795    2.00000
  126    -26.32795    2.00000
  127    -26.32667    2.00000
  128    -26.32570    2.00000
  129    -26.32570    2.00000
  130    -26.32570    2.00000
  131    -26.32570    2.00000
  132    -26.32561    2.00000
  133    -26.32561    2.00000
  134    -26.31665    2.00000
  135    -26.31665    2.00000
  136    -26.31665    2.00000
  137    -26.31665    2.00000
  138    -26.30607    2.00000
  139    -26.30607    2.00000
  140    -26.30607    2.00000
  141    -26.30607    2.00000
  142    -26.30448    2.00000
  143    -26.30448    2.00000
  144     -6.77394    2.00000
  145     -6.16154    2.00000
  146     -5.62939    2.00000
  147     -5.62939    2.00000
  148     -5.62939    2.00000
  149     -5.62939    2.00000
  150     -5.10316    2.00000
  151     -5.08111    2.00000
  152     -5.08111    2.00000
  153     -5.08111    2.00000
  154     -5.08111    2.00000
  155     -4.62465    2.00000
  156     -4.62465    2.00000
  157     -4.62465    2.00000
  158     -4.62465    2.00000
  159     -4.12260    2.00000
  160     -4.12260    2.00000
  161     -4.12260    2.00000
  162     -4.12260    2.00000
  163     -4.10717    2.00000
  164     -4.10717    2.00000
  165     -4.10717    2.00000
  166     -4.10717    2.00000
  167     -4.05186    2.00000
  168     -3.27261    2.00000
  169     -3.27261    2.00000
  170     -3.27261    2.00000
  171     -3.27261    2.00000
  172     -3.16811    2.00000
  173     -3.16811    2.00000
  174     -3.16811    2.00000
  175     -3.16811    2.00000
  176     -2.93396    2.00000
  177     -2.93396    2.00000
  178     -2.93396    2.00000
  179     -2.93396    2.00000

Fermi level: inf

Writing to output.gpw (mode='')


Forces in eV/Ang:
  0 Ca   -0.00000   -0.00000   -0.04144
  1 Ca    0.00000   -0.00000   -0.04144
  2 Ca    0.00000   -0.00000   -0.04144
  3 Ca   -0.00000    0.00000   -0.04144
  4 Ca    0.00000    0.00000   -0.04144
  5 Ca    0.00000    0.00000   -0.04144
  6 Ca   -0.00000    0.00000   -0.04144
  7 Ca    0.00000    0.00000   -0.04144
  8 Ca    0.00000    0.00000   -0.04144
  9 Ca    0.00000    0.00000    0.04461
 10 Ca   -0.00000    0.00000    0.04461
 11 Ca    0.00000    0.00000    0.04461
 12 Ca    0.00000   -0.00000    0.04461
 13 Ca   -0.00000   -0.00000    0.04461
 14 Ca    0.00000   -0.00000    0.04461
 15 Ca    0.00000    0.00000    0.04461
 16 Ca   -0.00000    0.00000    0.04461
 17 Ca    0.00000    0.00000    0.04461
 18 Ca   -0.00000   -0.00000   -0.04302
 19 Ca    0.00000   -0.00000   -0.04302
 20 Ca    0.00000   -0.00000   -0.04302
 21 Ca   -0.00000    0.00000   -0.04302
 22 Ca    0.00000    0.00000   -0.04302
 23 Ca    0.00000    0.00000   -0.04302
 24 Ca   -0.00000    0.00000   -0.04302
 25 Ca    0.00000    0.00000   -0.04302
 26 Ca    0.00000    0.00000   -0.04302
 27 Ca    0.00000    0.00000    0.04177
 28 Ca    0.00000    0.00000    0.04177
 29 Ca   -0.00000    0.00000    0.04177
 30 Ca    0.00000    0.00000    0.04177
 31 Ca    0.00000    0.00000    0.04177
 32 Ca   -0.00000    0.00000    0.04177
 33 Ca    0.00000   -0.00000    0.04177
 34 Ca    0.00000   -0.00000    0.04177
 35 Ca   -0.00000   -0.00000    0.04177

Timing:                              incl.     excl.
-----------------------------------------------------------
Forces:                              3.467     3.467   0.0% |
Hamiltonian:                       143.756     0.000   0.0% |
 Atomic:                             0.330     0.147   0.0% |
  XC Correction:                     0.184     0.184   0.0% |
 Calculate atomic Hamiltonians:      0.066     0.066   0.0% |
 Communicate:                        0.447     0.447   0.0% |
 Hartree integrate/restrict:         0.207     0.207   0.0% |
 Initialize Hamiltonian:             0.000     0.000   0.0% |
 Poisson:                            0.869     0.081   0.0% |
  Communicate from 1D:               0.090     0.090   0.0% |
  Communicate from 2D:               0.272     0.272   0.0% |
  Communicate to 1D:                 0.119     0.119   0.0% |
  Communicate to 2D:                 0.141     0.141   0.0% |
  FFT 1D:                            0.103     0.103   0.0% |
  FFT 2D:                            0.063     0.063   0.0% |
 XC 3D grid:                       141.832     4.551   0.0% |
  VdW-DF integral:                 137.281     0.323   0.0% |
   Convolution:                      8.669     8.669   0.0% |
   FFT:                              1.628     1.628   0.0% |
   gather:                          93.395    93.395   0.1% |
   hmm1:                             1.395     1.395   0.0% |
   hmm2:                             1.980     1.980   0.0% |
   iFFT:                             1.735     1.735   0.0% |
   potential:                       12.827     0.088   0.0% |
    collect:                         2.124     2.124   0.0% |
    p1:                              4.301     4.301   0.0% |
    p2:                              3.656     3.656   0.0% |
    sum:                             2.657     2.657   0.0% |
   splines:                         15.329    15.329   0.0% |
 vbar:                               0.003     0.003   0.0% |
LCAO initialization:                 1.058     0.060   0.0% |
 LCAO eigensolver:                   0.411     0.001   0.0% |
  Calculate projections:             0.000     0.000   0.0% |
  DenseAtomicCorrection:             0.000     0.000   0.0% |
  Distribute overlap matrix:         0.325     0.325   0.0% |
  Orbital Layouts:                   0.086     0.086   0.0% |
  Potential matrix:                  0.000     0.000   0.0% |
 LCAO to grid:                       0.057     0.057   0.0% |
 Set positions (LCAO WFS):           0.530     0.384   0.0% |
  Basic WFS set positions:           0.022     0.022   0.0% |
  Basis functions set positions:     0.001     0.001   0.0% |
  P tci:                             0.000     0.000   0.0% |
  ST tci:                            0.028     0.028   0.0% |
  mktci:                             0.095     0.095   0.0% |
SCF-cycle:                       65023.048   164.804   0.3% |
 Davidson:                       35014.743 23824.959  36.6% |--------------|
  Apply hamiltonian:              1492.429  1492.429   2.3% ||
  Subspace diag:                  1528.243     0.108   0.0% |
   calc_h_matrix:                  992.099   289.707   0.4% |
    Apply hamiltonian:             702.392   702.392   1.1% |
   diagonalize:                     65.936    65.936   0.1% |
   rotate_psi:                     470.100   470.100   0.7% |
  calc. matrices:                 6679.853  2891.878   4.4% |-|
   Apply hamiltonian:             3787.975  3787.975   5.8% |-|
  diagonalize:                     105.410   105.410   0.2% |
  rotate_psi:                     1383.849  1383.849   2.1% ||
 Density:                          605.574     0.019   0.0% |
  Atomic density matrices:           6.427     6.427   0.0% |
  Mix:                              64.066    64.066   0.1% |
  Multipole moments:                 1.495     1.495   0.0% |
  Pseudo density:                  533.567    54.982   0.1% |
   Symmetrize density:             478.585   478.585   0.7% |
 Hamiltonian:                    29229.207     0.094   0.0% |
  Atomic:                          115.656     8.069   0.0% |
   XC Correction:                  107.587   107.587   0.2% |
  Calculate atomic Hamiltonians:    37.596    37.596   0.1% |
  Communicate:                     127.685   127.685   0.2% |
  Hartree integrate/restrict:       25.834    25.834   0.0% |
  Poisson:                         387.599   144.306   0.2% |
   Communicate from 1D:             47.071    47.071   0.1% |
   Communicate from 2D:             50.404    50.404   0.1% |
   Communicate to 1D:               30.253    30.253   0.0% |
   Communicate to 2D:               51.433    51.433   0.1% |
   FFT 1D:                          32.198    32.198   0.0% |
   FFT 2D:                          31.935    31.935   0.0% |
  XC 3D grid:                    28532.365  1327.606   2.0% ||
   VdW-DF integral:              27204.760   118.997   0.2% |
    Convolution:                  3242.953  3242.953   5.0% |-|
    FFT:                           707.266   707.266   1.1% |
    gather:                      16298.728 16298.728  25.0% |---------|
    hmm1:                          673.946   673.946   1.0% |
    hmm2:                          859.841   859.841   1.3% ||
    iFFT:                          751.737   751.737   1.2% |
    potential:                    4551.288    38.071   0.1% |
     collect:                      605.653   605.653   0.9% |
     p1:                          1879.268  1879.268   2.9% ||
     p2:                          1344.459  1344.459   2.1% ||
     sum:                          683.838   683.838   1.0% |
    splines:                         0.005     0.005   0.0% |
  vbar:                              2.378     2.378   0.0% |
 Orthonormalize:                     8.720     0.000   0.0% |
  calc_s_matrix:                     0.276     0.276   0.0% |
  inverse-cholesky:                  7.924     7.924   0.0% |
  projections:                       0.000     0.000   0.0% |
  rotate_psi_s:                      0.520     0.520   0.0% |
Set symmetry:                        0.018     0.018   0.0% |
Other:                               7.268     7.268   0.0% |
-----------------------------------------------------------
Total:                                     65178.615 100.0%

Memory usage: 1.57 GiB
Date: Mon Feb 13 04:32:40 2023
