
  ___ ___ ___ _ _ _  
 |   |   |_  | | | | 
 | | | | | . | | | | 
 |__ |  _|___|_____|  22.8.0
 |___|_|             

User:   vazumah@c12.hercules
Date:   Sun Feb 12 10:26:22 2023
Arch:   x86_64
Pid:    12156
CWD:    /home/vazumah/Python_projects/LiNRR/autocad_start/slab_experiments/free_slabs/Ca/fcc111/substrate
Python: 3.10.8
gpaw:   /home/vazumah/.conda/envs/GPAW/lib/python3.10/site-packages/gpaw
_gpaw:  /home/vazumah/.conda/envs/GPAW/lib/python3.10/site-packages/
        _gpaw.cpython-310-x86_64-linux-gnu.so
ase:    /home/vazumah/.conda/envs/GPAW/lib/python3.10/site-packages/ase (version 3.22.1)
numpy:  /home/vazumah/.conda/envs/GPAW/lib/python3.10/site-packages/numpy (version 1.24.1)
scipy:  /home/vazumah/.conda/envs/GPAW/lib/python3.10/site-packages/scipy (version 1.10.0)
libxc:  5.2.3
units:  Angstrom and eV
cores: 24
OpenMP: True
OMP_NUM_THREADS: 1

Input parameters:
  eigensolver: {name: dav,
                niter: 3}
  h: 0.16
  kpts: {size: [1, 1, 1]}
  maxiter: 999
  mixer: {backend: pulay,
          beta: 0.01,
          method: difference,
          nmaxold: 5,
          weight: 100}
  occupations: {name: fermi-dirac,
                width: 0.05}
  poissonsolver: {dipolelayer: xy}
  xc: BEEF-vdW

System changes: positions, numbers, cell, pbc, initial_charges, initial_magmoms 

Initialize ...

species:
  Ca:
    name: Calcium
    id: 0641b8f64fa1d43c6d3de45527ace046
    Z: 20.0
    valence: 10
    core: 10
    charge: 0.0
    file: /home/vazumah/.conda/envs/GPAW/share/gpaw/Ca.PBE.gz
    compensation charges: {type: gauss,
                           rc: 0.37,
                           lmax: 2}
    cutoffs: {filter: 2.10,
              core: 1.17}
    valence states:
      #              energy  rcut
      - 3s(2.00)   -47.086   1.175
      - 4s(2.00)    -3.766   1.175
      - 3p(6.00)   -28.008   1.154
      -  p          -0.797   1.154
      -  d           0.000   0.937
  
    # Using partial waves for Ca as LCAO basis

Reference energy: -666391.292358  # eV

Spin-paired calculation

Convergence criteria:
 Maximum [total energy] change in last 3 cyles: 0.0005 eV / electron
 Maximum integral of absolute [dens]ity change: 0.0001 electrons / valence electron
 Maximum integral of absolute [eigenst]ate change: 4e-08 eV^2 / valence electron
 Maximum number of scf [iter]ations: 999
 (Square brackets indicate name in SCF output, whereas a 'c' in
 the SCF output indicates the quantity has converged.)

Symmetries present (total): 12

  ( 1  0  0)  ( 1  0  0)  ( 1 -1  0)  ( 1 -1  0)  ( 0  1  0)  ( 0  1  0)
  ( 1 -1  0)  ( 0  1  0)  ( 1  0  0)  ( 0 -1  0)  ( 1  0  0)  (-1  1  0)
  ( 0  0 -1)  ( 0  0  1)  ( 0  0 -1)  ( 0  0  1)  ( 0  0  1)  ( 0  0 -1)

  ( 0 -1  0)  ( 0 -1  0)  (-1  1  0)  (-1  1  0)  (-1  0  0)  (-1  0  0)
  ( 1 -1  0)  (-1  0  0)  ( 0  1  0)  (-1  0  0)  ( 0 -1  0)  (-1  1  0)
  ( 0  0  1)  ( 0  0 -1)  ( 0  0 -1)  ( 0  0  1)  ( 0  0 -1)  ( 0  0  1)

1 k-point (Gamma)
1 k-point in the irreducible part of the Brillouin zone
       k-points in crystal coordinates                weights
   0:     0.00000000    0.00000000    0.00000000          1/1

Wave functions: Uniform real-space grid
  Kinetic energy operator: 8*3+1=25 point O(h^6) finite-difference Laplacian
  ScaLapack parameters: grid=1x1, blocksize=None
  Wavefunction extrapolation:
    Improved wavefunction reuse through dual PAW basis 

Occupation numbers: Fermi-Dirac:
  width: 0.0500  # eV
 

Eigensolver
   Davidson(niter=3) 

Densities:
  Coarse grid: 64*64*184 grid
  Fine grid: 128*128*368 grid
  Total Charge: 0.000000 

Density mixing:
  Method: separate
  Backend: pulay
  Linear mixing parameter: 0.01
  old densities: 5
  Damping of long wavelength oscillations: 100 

Hamiltonian:
  XC and Coulomb potentials evaluated on a 128*128*368 grid
  Using the BEEF-vdW Exchange-Correlation functional
  Interpolation: tri-quintic (5. degree polynomial)
  Poisson solver: FastPoissonSolver using
    Stencil: 8*3+1=25 point O(h^6) finite-difference Laplacian
    FFT axes: [0, 1]
    FST axes: [2]

Dipole correction along z-axis 

XC parameters: BEEF-vdW with 2 nearest neighbor stencil

Memory estimate:
  Process memory now: 99.41 MiB
  Calculator: 111.96 MiB
    Density: 17.92 MiB
      Arrays: 6.19 MiB
      Localized functions: 9.39 MiB
      Mixer: 2.34 MiB
    Hamiltonian: 4.79 MiB
      Arrays: 4.05 MiB
      XC: 0.00 MiB
      Poisson: 0.00 MiB
      vbar: 0.74 MiB
    Wavefunctions: 89.26 MiB
      Arrays psit_nG: 42.19 MiB
      Eigensolver: 45.84 MiB
      Projections: 0.03 MiB
      Projectors: 1.20 MiB

Total number of cores used: 24
Domain decomposition: 2 x 2 x 6

Number of atoms: 36
Number of atomic orbitals: 180
Number of bands in calculation: 180
Number of valence electrons: 360
Bands to converge: occupied

... initialized

Initializing position-dependent things.

Density initialized from atomic densities
Creating initial wave functions:
  180 bands from LCAO basis set

                                                        
                                                        
                                                        
                                                        
                                                        
                     Ca        Ca        Ca             
                                                        
              Ca        Ca        Ca                    
                      Ca        Ca        Ca            
       Ca        Ca        Ca                           
                Ca       Ca        Ca                   
                                                        
         Ca       Ca       CCa      Ca        Ca        
                                                        
                                                        
                    Ca       Ca        Ca               
                                                        
             Ca      CCa       CCa       Ca             
                                                        
              Ca        Ca        Ca                    
                                                        
       Ca        Ca        Ca                           
                                                        
                                                        
                                                        
                                                        

Positions:
   0 Ca     0.000000    0.000000   10.000000    ( 0.0000,  0.0000,  0.0000)
   1 Ca     3.945656    0.000000   10.000000    ( 0.0000,  0.0000,  0.0000)
   2 Ca     7.891312    0.000000   10.000000    ( 0.0000,  0.0000,  0.0000)
   3 Ca     1.972828    3.417038   10.000000    ( 0.0000,  0.0000,  0.0000)
   4 Ca     5.918484    3.417038   10.000000    ( 0.0000,  0.0000,  0.0000)
   5 Ca     9.864140    3.417038   10.000000    ( 0.0000,  0.0000,  0.0000)
   6 Ca     3.945656    6.834076   10.000000    ( 0.0000,  0.0000,  0.0000)
   7 Ca     7.891312    6.834076   10.000000    ( 0.0000,  0.0000,  0.0000)
   8 Ca    11.836968    6.834076   10.000000    ( 0.0000,  0.0000,  0.0000)
   9 Ca     1.972828    1.139013   13.221615    ( 0.0000,  0.0000,  0.0000)
  10 Ca     5.918484    1.139013   13.221615    ( 0.0000,  0.0000,  0.0000)
  11 Ca     9.864140    1.139013   13.221615    ( 0.0000,  0.0000,  0.0000)
  12 Ca     3.945656    4.556051   13.221615    ( 0.0000,  0.0000,  0.0000)
  13 Ca     7.891312    4.556051   13.221615    ( 0.0000,  0.0000,  0.0000)
  14 Ca    11.836968    4.556051   13.221615    ( 0.0000,  0.0000,  0.0000)
  15 Ca     5.918484    7.973089   13.221615    ( 0.0000,  0.0000,  0.0000)
  16 Ca     9.864140    7.973089   13.221615    ( 0.0000,  0.0000,  0.0000)
  17 Ca    13.809795    7.973089   13.221615    ( 0.0000,  0.0000,  0.0000)
  18 Ca     0.000000    2.278025   16.443229    ( 0.0000,  0.0000,  0.0000)
  19 Ca     3.945656    2.278025   16.443229    ( 0.0000,  0.0000,  0.0000)
  20 Ca     7.891312    2.278025   16.443229    ( 0.0000,  0.0000,  0.0000)
  21 Ca     1.972828    5.695064   16.443229    ( 0.0000,  0.0000,  0.0000)
  22 Ca     5.918484    5.695064   16.443229    ( 0.0000,  0.0000,  0.0000)
  23 Ca     9.864140    5.695064   16.443229    ( 0.0000,  0.0000,  0.0000)
  24 Ca     3.945656    9.112102   16.443229    ( 0.0000,  0.0000,  0.0000)
  25 Ca     7.891312    9.112102   16.443229    ( 0.0000,  0.0000,  0.0000)
  26 Ca    11.836968    9.112102   16.443229    ( 0.0000,  0.0000,  0.0000)
  27 Ca     0.000000    0.000000   19.664844    ( 0.0000,  0.0000,  0.0000)
  28 Ca     3.945656    0.000000   19.664844    ( 0.0000,  0.0000,  0.0000)
  29 Ca     7.891312    0.000000   19.664844    ( 0.0000,  0.0000,  0.0000)
  30 Ca     1.972828    3.417038   19.664844    ( 0.0000,  0.0000,  0.0000)
  31 Ca     5.918484    3.417038   19.664844    ( 0.0000,  0.0000,  0.0000)
  32 Ca     9.864140    3.417038   19.664844    ( 0.0000,  0.0000,  0.0000)
  33 Ca     3.945656    6.834076   19.664844    ( 0.0000,  0.0000,  0.0000)
  34 Ca     7.891312    6.834076   19.664844    ( 0.0000,  0.0000,  0.0000)
  35 Ca    11.836968    6.834076   19.664844    ( 0.0000,  0.0000,  0.0000)

Unit cell:
           periodic     x           y           z      points  spacing
  1. axis:    yes   11.836968    0.000000    0.000000    64     0.1602
  2. axis:    yes    5.918484   10.251115    0.000000    64     0.1602
  3. axis:    no     0.000000    0.000000   29.664844   184     0.1612

  Lengths:  11.836968  11.836968  29.664844
  Angles:   90.000000  90.000000  60.000000

Effective grid spacing dv^(1/3) = 0.1684

     iter     time        total  log10-change:
                         energy  eigst   dens
iter:   1 10:31:58 -1558.848898
iter:   2 10:37:12 -1569.911444  +0.72  -1.62
iter:   3 10:42:13 -1576.207918  +0.24  -1.57
iter:   4 10:47:20 -1580.302937  +0.23  -1.53
Writing to output.gpw (mode='')

iter:   5 10:52:39 -1584.055175  -0.20  -1.46
iter:   6 10:57:37 -1585.896245  -0.09  -1.66
iter:   7 11:02:43 -1587.206159  -0.57  -1.64
iter:   8 11:07:42 -1588.502013  -0.46  -1.60
iter:   9 11:12:36 -1588.491799  -0.80  -1.55
Writing to output.gpw (mode='')

iter:  10 11:17:55 -1586.171517  -0.38  -1.53
iter:  11 11:23:07 -1587.751999  -0.02  -1.68
iter:  12 11:28:27 -1589.526601  -0.76  -1.63
iter:  13 11:33:38 -1586.487267  -0.84  -1.54
iter:  14 11:38:53 -1587.434098  -1.45  -1.59
Writing to output.gpw (mode='')

iter:  15 11:44:06 -1587.901919  -1.32  -1.59
iter:  16 11:49:21 -1588.461469  -1.34  -1.57
iter:  17 11:54:52 -1586.350995  -1.01  -1.55
iter:  18 12:00:05 -1587.085927  -0.77  -1.59
iter:  19 12:05:15 -1602.524310  -0.18  -1.59
Writing to output.gpw (mode='')

iter:  20 12:10:28 -1585.407957  -0.42  -1.27
iter:  21 12:15:39 -1641.398426  +0.16  -1.39
iter:  22 12:21:04 -1582.662160  +0.11  -1.02
iter:  23 12:26:18 -1630.390878  -0.11  -1.13
iter:  24 12:31:54 -1609.350779  -0.65  -1.03
Writing to output.gpw (mode='')

iter:  25 12:37:00 -1613.601667  -1.12  -1.04
iter:  26 12:42:13 -1690.426373  +1.29  -1.03
iter:  27 12:47:23 -1583.780108  +0.50  -0.99
iter:  28 12:52:59 -1592.783629  +0.54  -1.17
iter:  29 12:58:08 -1592.191308  +0.31  -1.49
Writing to output.gpw (mode='')

iter:  30 13:03:40 -1589.088583  -0.59  -1.47
iter:  31 13:09:03 -1596.508071  -0.71  -1.49
iter:  32 13:14:17 -1592.503540  -0.67  -1.38
iter:  33 13:19:54 -1609.320003  -0.54  -1.38
iter:  34 13:25:18 -1583.254334  -0.43  -1.14
Writing to output.gpw (mode='')

iter:  35 13:30:42 -1586.616021  -0.40  -1.33
iter:  36 13:36:12 -1587.826801  -0.90  -1.36
iter:  37 13:41:25 -1589.138757  -1.16  -1.38
iter:  38 13:46:52 -1586.758356  -1.11  -1.39
iter:  39 13:52:04 -1593.998882  -0.93  -1.48
Writing to output.gpw (mode='')

iter:  40 13:57:43 -1592.774926  -0.03  -1.38
iter:  41 14:03:06 -1590.283462  -0.22  -1.56
iter:  42 14:08:34 -1587.475230  -1.01  -1.57
iter:  43 14:13:59 -1587.088843  -0.89  -1.65
iter:  44 14:19:13 -1587.514686  -0.80  -1.72
Writing to output.gpw (mode='')

iter:  45 14:24:54 -1588.774628  -0.85  -1.71
iter:  46 14:30:10 -1588.604443  -0.78  -1.66
iter:  47 14:35:34 -1587.773112  -1.55  -1.68
iter:  48 14:40:59 -1588.661150  -1.37  -1.75
iter:  49 14:46:31 -1613.664900  +0.02  -1.70
Writing to output.gpw (mode='')

iter:  50 14:51:49 -1600.809447  -0.29  -1.20
iter:  51 14:57:00 -1585.709535  -0.67  -1.21
iter:  52 15:02:32 -1588.745328  -0.65  -1.36
iter:  53 15:08:17 -1586.135321  -1.06  -1.38
iter:  54 15:13:59 -1588.886069  -1.44  -1.58
Writing to output.gpw (mode='')

iter:  55 15:19:23 -1591.485320  -0.30  -1.53
iter:  56 15:24:43 -1587.804986  -0.31  -1.56
iter:  57 15:29:59 -1592.805147  +0.00  -1.81
iter:  58 15:35:17 -1591.946451  -0.24  -1.61
iter:  59 15:40:38 -1591.161239  -0.95  -1.56
Writing to output.gpw (mode='')

iter:  60 15:45:56 -1587.682329  -1.30  -1.56
iter:  61 15:51:14 -1601.082897  -0.44  -1.67
iter:  62 15:56:30 -1599.589176  -0.52  -1.31
iter:  63 16:01:59 -1584.593699  -0.57  -1.29
iter:  64 16:07:27 -1585.038745  -0.17  -1.59
Writing to output.gpw (mode='')

iter:  65 16:12:53 -1586.986174  -0.30  -1.74
iter:  66 16:18:14 -1588.188199  -0.37  -1.75
iter:  67 16:23:27 -1587.976327  -0.53  -1.78
iter:  68 16:28:45 -1587.862871  -1.21  -1.86
iter:  69 16:34:02 -1587.858769c -1.44  -1.90
Writing to output.gpw (mode='')

iter:  70 16:39:36 -1591.291148  -0.83  -1.97
iter:  71 16:44:46 -1591.205996  -0.77  -1.63
iter:  72 16:50:07 -1588.373057  -1.38  -1.59
iter:  73 16:55:22 -1588.814286  -1.94  -1.65
iter:  74 17:00:26 -1591.847177  -1.52  -1.65
Writing to output.gpw (mode='')

iter:  75 17:05:43 -1586.593482  -0.92  -1.49
iter:  76 17:11:00 -1587.592069  -0.88  -1.85
iter:  77 17:16:15 -1588.295745  -1.06  -1.86
iter:  78 17:21:30 -1588.471308  -0.69  -1.86
iter:  79 17:26:44 -1588.879621  -0.71  -1.93
Writing to output.gpw (mode='')

iter:  80 17:32:08 -1588.811801  -1.26  -1.85
iter:  81 17:37:23 -1589.304158  -1.41  -1.80
iter:  82 17:42:41 -1591.379673  -1.12  -1.74
iter:  83 17:47:57 -1591.992590  -0.76  -1.60
iter:  84 17:53:18 -1591.797783  -1.12  -1.54
Writing to output.gpw (mode='')

iter:  85 17:58:48 -1597.790938  -0.96  -1.51
iter:  86 18:03:58 -1595.174519  -0.91  -1.35
iter:  87 18:09:10 -1598.823202  -1.07  -1.34
iter:  88 18:14:13 -1592.410502  -1.35  -1.29
iter:  89 18:19:18 -1597.816269  -1.59  -1.32
Writing to output.gpw (mode='')

iter:  90 18:24:33 -1593.422214  -1.71  -1.27
iter:  91 18:30:00 -1591.628972  +0.15  -1.29
iter:  92 18:35:14 -1586.750671  -0.21  -1.55
iter:  93 18:40:29 -1587.837458  -0.38  -1.93
iter:  94 18:45:42 -1588.048290  -0.96  -2.01
Writing to output.gpw (mode='')

iter:  95 18:51:01 -1587.911358  -1.49  -2.02
iter:  96 18:56:19 -1587.954596c -1.57  -2.23
iter:  97 19:01:51 -1588.571552  -1.42  -2.36
iter:  98 19:07:17 -1588.294392  -1.44  -2.02
iter:  99 19:12:30 -1589.022537  -1.74  -2.02
Writing to output.gpw (mode='')

iter: 100 19:17:35 -1589.327561  -1.18  -1.84
iter: 101 19:22:53 -1588.620592  -1.96  -1.78
iter: 102 19:27:57 -1589.689390  -1.99  -1.81
iter: 103 19:33:16 -1588.195658  -1.78  -1.68
iter: 104 19:38:42 -1589.493928  -1.83  -1.77
Writing to output.gpw (mode='')

iter: 105 19:44:18 -1587.924129  -1.78  -1.70
iter: 106 19:49:39 -1587.657127  -1.05  -1.81
iter: 107 19:54:54 -1587.952484  -1.75  -2.34
iter: 108 20:00:26 -1588.018605  -2.36  -2.29
iter: 109 20:05:30 -1588.002274c -2.44  -2.28
Writing to output.gpw (mode='')

iter: 110 20:10:50 -1588.296244  -1.67  -2.28
iter: 111 20:16:05 -1588.287479  -1.68  -2.08
iter: 112 20:21:12 -1587.930786  -1.87  -2.06
iter: 113 20:26:26 -1588.831982  -1.01  -2.35
iter: 114 20:31:36 -1589.061219  -0.85  -2.02
Writing to output.gpw (mode='')

iter: 115 20:37:05 -1588.132572  -2.04  -1.93
iter: 116 20:42:28 -1587.901500  -2.14  -2.02
iter: 117 20:47:56 -1588.175021  -2.12  -2.21
iter: 118 20:53:23 -1588.071893  -3.20  -2.15
iter: 119 20:58:30 -1588.655479  -2.04  -2.17
Writing to output.gpw (mode='')

iter: 120 21:04:03 -1588.765838  -1.95  -1.89
iter: 121 21:09:35 -1588.462709  -2.40  -1.86
iter: 122 21:14:55 -1587.935884  -2.25  -1.87
iter: 123 21:20:06 -1587.816855  -1.60  -2.06
iter: 124 21:25:24 -1587.893189c -1.48  -2.33
Writing to output.gpw (mode='')

iter: 125 21:30:44 -1588.057365  -1.81  -2.40
iter: 126 21:35:50 -1588.033251c -1.76  -2.38
iter: 127 21:41:06 -1588.114608c -2.04  -2.39
iter: 128 21:46:24 -1588.012815c -2.68  -2.35
iter: 129 21:51:50 -1587.983433c -2.97  -2.41
Writing to output.gpw (mode='')

iter: 130 21:57:17 -1588.094785c -2.42  -2.51
iter: 131 22:02:30 -1587.954896c -2.13  -2.35
iter: 132 22:07:48 -1587.993273c -2.08  -2.53
iter: 133 22:13:00 -1588.314403  -1.60  -2.57
iter: 134 22:18:31 -1588.416365  -1.26  -2.22
Writing to output.gpw (mode='')

iter: 135 22:23:52 -1588.221703  -2.11  -2.12
iter: 136 22:29:14 -1588.358686  -2.39  -2.11
iter: 137 22:34:36 -1587.847536  -1.79  -2.03
iter: 138 22:40:13 -1587.911005  -1.50  -2.34
iter: 139 22:45:46 -1587.970187c -1.86  -2.56
Writing to output.gpw (mode='')

iter: 140 22:50:57 -1587.993340c -2.36  -2.60
iter: 141 22:56:33 -1588.018968c -2.02  -2.58
iter: 142 23:01:46 -1588.157441c -2.00  -2.55
iter: 143 23:07:02 -1588.212483  -1.56  -2.35
iter: 144 23:12:10 -1588.243610c -2.17  -2.25
Writing to output.gpw (mode='')

iter: 145 23:17:26 -1588.353547c -1.90  -2.17
iter: 146 23:22:54 -1588.176640c -2.59  -2.08
iter: 147 23:28:34 -1588.424516  -2.51  -2.09
iter: 148 23:33:46 -1588.141071  -2.72  -1.97
iter: 149 23:39:06 -1587.985559  -2.49  -2.01
Writing to output.gpw (mode='')

iter: 150 23:44:28 -1588.038946c -2.44  -2.11
iter: 151 23:49:48 -1587.962976c -2.80  -2.13
iter: 152 23:55:02 -1587.956750c -2.15  -2.25
iter: 153 00:00:32 -1587.927048c -2.40  -2.31
iter: 154 00:06:05 -1587.954239c -1.75  -2.62
Writing to output.gpw (mode='')

iter: 155 00:11:23 -1588.017963c -2.19  -2.75
iter: 156 00:16:42 -1588.054266c -1.80  -2.67
iter: 157 00:21:52 -1588.035221c -2.32  -2.53
iter: 158 00:27:11 -1587.983559c -2.78  -2.52
iter: 159 00:32:35 -1587.992802c -2.51  -2.77
Writing to output.gpw (mode='')

iter: 160 00:38:10 -1588.002338c -2.28  -2.96
iter: 161 00:39:48 -1588.004822c -2.89  -2.89
iter: 162 00:40:27 -1588.004565c -2.94  -2.81
iter: 163 00:41:05 -1587.997233c -3.72  -2.77
iter: 164 00:41:44 -1587.992820c -3.31  -2.82
Writing to output.gpw (mode='')

iter: 165 00:42:23 -1587.993344c -3.25  -3.10
iter: 166 00:43:02 -1587.993147c -3.78  -3.13
iter: 167 00:43:40 -1587.993720c -3.84  -3.14
iter: 168 00:44:19 -1587.993634c -4.19  -3.14
iter: 169 00:44:57 -1587.993701c -4.60  -3.14
Writing to output.gpw (mode='')

iter: 170 00:45:37 -1587.993485c -4.61  -3.15
iter: 171 00:46:16 -1587.993842c -4.62  -3.17
iter: 172 00:46:54 -1587.995750c -4.07  -3.20
iter: 173 00:47:33 -1587.994334c -4.14  -3.21
iter: 174 00:48:12 -1587.995576c -4.27  -3.32
Writing to output.gpw (mode='')

iter: 175 00:48:52 -1587.995156c -4.51  -3.23
iter: 176 00:49:30 -1587.994474c -4.23  -3.22
iter: 177 00:50:09 -1587.994319c -4.12  -3.27
iter: 178 00:50:47 -1587.994751c -4.42  -3.28
iter: 179 00:51:26 -1587.998722c -3.83  -3.26
Writing to output.gpw (mode='')

iter: 180 00:52:06 -1587.993350c -3.38  -3.06
iter: 181 00:52:45 -1587.994561c -3.65  -3.25
iter: 182 00:53:23 -1587.995042c -4.28  -3.19
iter: 183 00:54:02 -1587.995160c -4.36  -3.23
iter: 184 00:54:40 -1587.997075c -3.73  -3.23
Writing to output.gpw (mode='')

iter: 185 00:55:22 -1587.996435c -3.58  -3.15
iter: 186 00:56:00 -1587.997530c -3.54  -3.13
iter: 187 00:56:39 -1587.995930c -3.75  -3.12
iter: 188 00:57:17 -1587.993515c -4.00  -3.13
iter: 189 00:57:56 -1587.994175c -4.36  -3.41
Writing to output.gpw (mode='')

iter: 190 00:58:36 -1587.994565c -4.87  -3.45
iter: 191 00:59:14 -1587.995162c -4.28  -3.39
iter: 192 00:59:53 -1587.994938c -4.21  -3.31
iter: 193 01:00:32 -1587.996458c -4.37  -3.29
iter: 194 01:01:10 -1587.997372c -3.76  -3.18
Writing to output.gpw (mode='')

iter: 195 01:01:50 -1587.995058c -4.21  -3.11
iter: 196 01:02:28 -1587.994263c -4.72  -3.15
iter: 197 01:03:07 -1587.993490c -4.47  -3.20
iter: 198 01:03:45 -1587.993512c -3.93  -3.29
iter: 199 01:04:24 -1587.995931c -3.90  -3.33
Writing to output.gpw (mode='')

iter: 200 01:05:03 -1587.993335c -3.81  -3.23
iter: 201 01:05:42 -1587.994442c -3.79  -3.32
iter: 202 01:06:20 -1587.994284c -3.96  -3.34
iter: 203 01:06:59 -1587.996393c -3.93  -3.38
iter: 204 01:07:38 -1587.993556c -3.88  -3.23
Writing to output.gpw (mode='')

iter: 205 01:08:17 -1587.994016c -4.04  -3.38
iter: 206 01:08:56 -1587.994095c -4.33  -3.50
iter: 207 01:09:34 -1587.994357c -4.74  -3.55
iter: 208 01:10:13 -1587.994078c -4.58  -3.53
iter: 209 01:10:52 -1587.994321c -4.75  -3.64
Writing to output.gpw (mode='')

iter: 210 01:11:31 -1587.994269c -4.80  -3.60
iter: 211 01:12:10 -1587.994187c -5.47  -3.60
iter: 212 01:12:48 -1587.994263c -5.06  -3.62
iter: 213 01:13:27 -1587.994230c -5.10  -3.63
iter: 214 01:14:05 -1587.994289c -5.21  -3.62
Writing to output.gpw (mode='')

iter: 215 01:14:45 -1587.994314c -4.74  -3.58
iter: 216 01:15:24 -1587.994424c -4.47  -3.59
iter: 217 01:16:03 -1587.994464c -4.91  -3.55
iter: 218 01:16:41 -1587.994561c -4.71  -3.51
iter: 219 01:17:20 -1587.994742c -4.56  -3.46
Writing to output.gpw (mode='')

iter: 220 01:17:59 -1587.994913c -4.59  -3.40
iter: 221 01:18:38 -1587.995197c -4.53  -3.35
iter: 222 01:19:17 -1587.994127c -4.77  -3.29
iter: 223 01:19:55 -1587.994264c -5.04  -3.37
iter: 224 01:20:34 -1587.996169c -4.53  -3.39
Writing to output.gpw (mode='')

iter: 225 01:21:14 -1587.993888c -4.46  -3.14
iter: 226 01:21:52 -1587.993504c -4.21  -3.26
iter: 227 01:22:31 -1587.993640c -3.93  -3.47
iter: 228 01:23:09 -1587.993857c -4.13  -3.62
iter: 229 01:23:48 -1587.994032c -4.63  -3.68
Writing to output.gpw (mode='')

iter: 230 01:24:27 -1587.994179c -5.30  -3.70
iter: 231 01:25:06 -1587.994184c -5.35  -3.65
iter: 232 01:25:45 -1587.994104c -5.70  -3.63
iter: 233 01:26:23 -1587.994078c -5.35  -3.66
iter: 234 01:27:02 -1587.994097c -5.13  -3.71
Writing to output.gpw (mode='')

iter: 235 01:27:41 -1587.994301c -5.13  -3.72
iter: 236 01:28:20 -1587.994548c -4.79  -3.62
iter: 237 01:28:58 -1587.994441c -4.74  -3.55
iter: 238 01:29:37 -1587.994074c -4.93  -3.58
iter: 239 01:30:16 -1587.994206c -4.41  -3.86
Writing to output.gpw (mode='')

iter: 240 01:30:56 -1587.994241c -4.57  -4.02c
iter: 241 01:31:35 -1587.994762c -4.68  -3.94
iter: 242 01:32:13 -1587.994735c -4.53  -3.51
iter: 243 01:32:52 -1587.994972c -4.75  -3.47
iter: 244 01:33:31 -1587.994889c -4.67  -3.41
Writing to output.gpw (mode='')

iter: 245 01:34:11 -1587.994597c -5.31  -3.38
iter: 246 01:34:49 -1587.995450c -4.85  -3.40
iter: 247 01:35:28 -1587.993726c -4.26  -3.28
iter: 248 01:36:06 -1587.995085c -4.30  -3.48
iter: 249 01:36:45 -1587.995563c -3.74  -3.34
Writing to output.gpw (mode='')

iter: 250 01:37:25 -1587.994206c -4.04  -3.38
iter: 251 01:38:03 -1587.994206c -4.35  -3.54
iter: 252 01:38:42 -1587.994263c -4.27  -4.03c
iter: 253 01:39:21 -1587.994237c -5.04  -3.93
iter: 254 01:39:59 -1587.994247c -5.37  -3.90
Writing to output.gpw (mode='')

iter: 255 01:40:39 -1587.994264c -5.49  -3.86
iter: 256 01:41:18 -1587.994270c -5.52  -3.82
iter: 257 01:41:57 -1587.994191c -5.62  -3.79
iter: 258 01:42:35 -1587.994199c -5.74  -3.89
iter: 259 01:43:14 -1587.994198c -5.97  -3.90
Writing to output.gpw (mode='')

iter: 260 01:43:53 -1587.994205c -5.47  -3.91
iter: 261 01:44:32 -1587.994184c -5.78  -3.88
iter: 262 01:45:11 -1587.994253c -5.06  -3.96
iter: 263 01:45:49 -1587.994173c -5.40  -3.93
iter: 264 01:46:28 -1587.994222c -5.29  -4.00
Writing to output.gpw (mode='')

iter: 265 01:47:08 -1587.994170c -5.67  -4.01c
iter: 266 01:47:46 -1587.994181c -5.63  -4.11c
iter: 267 01:48:25 -1587.994204c -5.21  -4.22c
iter: 268 01:49:03 -1587.994228c -4.99  -4.16c
iter: 269 01:49:42 -1587.994230c -5.37  -4.05c
Writing to output.gpw (mode='')

iter: 270 01:50:22 -1587.994191c -6.06  -3.99
iter: 271 01:51:00 -1587.994165c -5.88  -4.02c
iter: 272 01:51:39 -1587.994167c -6.34  -4.36c
iter: 273 01:52:18 -1587.994193c -6.20  -4.36c
iter: 274 01:52:56 -1587.994176c -6.57  -4.13c
Writing to output.gpw (mode='')

iter: 275 01:53:36 -1587.994168c -6.79  -4.17c
iter: 276 01:54:15 -1587.994163c -6.11  -4.23c
iter: 277 01:54:53 -1587.994170c -5.76  -4.32c
iter: 278 01:55:32 -1587.994185c -5.46  -4.36c
iter: 279 01:56:10 -1587.994172c -6.30  -4.26c
Writing to output.gpw (mode='')

iter: 280 01:56:50 -1587.994169c -7.02  -4.30c
iter: 281 01:57:29 -1587.994171c -7.01  -4.35c
iter: 282 01:58:07 -1587.994197c -5.80  -4.37c
iter: 283 01:58:46 -1587.994206c -5.85  -4.13c
iter: 284 01:59:25 -1587.994159c -5.96  -4.07c
Writing to output.gpw (mode='')

iter: 285 02:00:04 -1587.994162c -5.66  -4.29c
iter: 286 02:00:43 -1587.994164c -5.93  -4.38c
iter: 287 02:01:22 -1587.994170c -6.70  -4.43c
iter: 288 02:02:00 -1587.994172c -7.28  -4.39c
iter: 289 02:02:39 -1587.994167c -6.87  -4.37c
Writing to output.gpw (mode='')

iter: 290 02:03:19 -1587.994167c -6.39  -4.44c
iter: 291 02:03:58 -1587.994202c -5.96  -4.47c
iter: 292 02:04:37 -1587.994166c -5.89  -4.16c
iter: 293 02:05:15 -1587.994176c -5.76  -4.32c
iter: 294 02:05:54 -1587.994169c -6.20  -4.56c
Writing to output.gpw (mode='')

iter: 295 02:06:34 -1587.994169c -7.00  -4.72c
iter: 296 02:07:12 -1587.994169c -7.05  -4.75c
iter: 297 02:07:51 -1587.994169c -7.12  -4.79c
iter: 298 02:08:29 -1587.994171c -7.25  -4.80c
iter: 299 02:09:08 -1587.994171c -7.06  -4.71c
Writing to output.gpw (mode='')

iter: 300 02:09:50 -1587.994171c -7.58c -4.70c

Converged after 300 iterations.

Dipole moment: (-21.920977, -12.656082, -0.000000) |e|*Ang

Energy contributions relative to reference atoms: (reference = -666391.292358)

Kinetic:       +358.035685
Potential:     -254.181430
External:        +0.000000
XC:            -1674.485200
Entropy (-ST):   -0.000000
Local:          -17.363227
--------------------------
Free energy:   -1587.994171
Extrapolated:  -1587.994171

Dipole-layer corrected work functions: -inf, -inf eV

 Band  Eigenvalues  Occupancy
    0    -46.31850    2.00000
    1    -46.31850    2.00000
    2    -46.31499    2.00000
    3    -46.31499    2.00000
    4    -46.31499    2.00000
    5    -46.31499    2.00000
    6    -46.31499    2.00000
    7    -46.31499    2.00000
    8    -46.31499    2.00000
    9    -46.31499    2.00000
   10    -46.31231    2.00000
   11    -46.31231    2.00000
   12    -46.30125    2.00000
   13    -46.30125    2.00000
   14    -46.30120    2.00000
   15    -46.30120    2.00000
   16    -46.30039    2.00000
   17    -46.30039    2.00000
   18    -45.91119    2.00000
   19    -45.90577    2.00000
   20    -45.90480    2.00000
   21    -45.90470    2.00000
   22    -45.90470    2.00000
   23    -45.90454    2.00000
   24    -45.90454    2.00000
   25    -45.90437    2.00000
   26    -45.90166    2.00000
   27    -45.90158    2.00000
   28    -45.90158    2.00000
   29    -45.90140    2.00000
   30    -45.90140    2.00000
   31    -45.90126    2.00000
   32    -45.90029    2.00000
   33    -45.90029    2.00000
   34    -45.90026    2.00000
   35    -45.90026    2.00000
   36    -27.28103    2.00000
   37    -27.28081    2.00000
   38    -27.27276    2.00000
   39    -27.27276    2.00000
   40    -27.27276    2.00000
   41    -27.27276    2.00000
   42    -27.27271    2.00000
   43    -27.27271    2.00000
   44    -27.27271    2.00000
   45    -27.27271    2.00000
   46    -27.26917    2.00000
   47    -27.26917    2.00000
   48    -27.26911    2.00000
   49    -27.26911    2.00000
   50    -27.26814    2.00000
   51    -27.26812    2.00000
   52    -27.26554    2.00000
   53    -27.26552    2.00000
   54    -27.22605    2.00000
   55    -27.22603    2.00000
   56    -27.22595    2.00000
   57    -27.22594    2.00000
   58    -27.22193    2.00000
   59    -27.22190    2.00000
   60    -27.22122    2.00000
   61    -27.22119    2.00000
   62    -27.22070    2.00000
   63    -27.22069    2.00000
   64    -27.22065    2.00000
   65    -27.22065    2.00000
   66    -27.22041    2.00000
   67    -27.22041    2.00000
   68    -27.22037    2.00000
   69    -27.22037    2.00000
   70    -27.21416    2.00000
   71    -27.21414    2.00000
   72    -27.21346    2.00000
   73    -27.21343    2.00000
   74    -27.17742    2.00000
   75    -27.17742    2.00000
   76    -27.17733    2.00000
   77    -27.17732    2.00000
   78    -27.17050    2.00000
   79    -27.17050    2.00000
   80    -27.17047    2.00000
   81    -27.17047    2.00000
   82    -27.17006    2.00000
   83    -27.17006    2.00000
   84    -27.17005    2.00000
   85    -27.17004    2.00000
   86    -27.15736    2.00000
   87    -27.15736    2.00000
   88    -27.15665    2.00000
   89    -27.15665    2.00000
   90    -26.88898    2.00000
   91    -26.87350    2.00000
   92    -26.87347    2.00000
   93    -26.87336    2.00000
   94    -26.87333    2.00000
   95    -26.87220    2.00000
   96    -26.87188    2.00000
   97    -26.85861    2.00000
   98    -26.85860    2.00000
   99    -26.85491    2.00000
  100    -26.85490    2.00000
  101    -26.84930    2.00000
  102    -26.84919    2.00000
  103    -26.84693    2.00000
  104    -26.84680    2.00000
  105    -26.84680    2.00000
  106    -26.84667    2.00000
  107    -26.83298    2.00000
  108    -26.83265    2.00000
  109    -26.83213    2.00000
  110    -26.82536    2.00000
  111    -26.82532    2.00000
  112    -26.82199    2.00000
  113    -26.82185    2.00000
  114    -26.82176    2.00000
  115    -26.82160    2.00000
  116    -26.82081    2.00000
  117    -26.82068    2.00000
  118    -26.82052    2.00000
  119    -26.82036    2.00000
  120    -26.81835    2.00000
  121    -26.81830    2.00000
  122    -26.81695    2.00000
  123    -26.81667    2.00000
  124    -26.81559    2.00000
  125    -26.81550    2.00000
  126    -26.81459    2.00000
  127    -26.81450    2.00000
  128    -26.78621    2.00000
  129    -26.78616    2.00000
  130    -26.78574    2.00000
  131    -26.78573    2.00000
  132    -26.78557    2.00000
  133    -26.78528    2.00000
  134    -26.77427    2.00000
  135    -26.77420    2.00000
  136    -26.77378    2.00000
  137    -26.77378    2.00000
  138    -26.77364    2.00000
  139    -26.77334    2.00000
  140    -26.76844    2.00000
  141    -26.76773    2.00000
  142    -26.76047    2.00000
  143    -26.75976    2.00000
  144     -7.19175    2.00000
  145     -6.71816    2.00000
  146     -5.87506    2.00000
  147     -5.69789    2.00000
  148     -5.69780    2.00000
  149     -5.69014    2.00000
  150     -5.69014    2.00000
  151     -5.69013    2.00000
  152     -5.69004    2.00000
  153     -5.28403    2.00000
  154     -5.28400    2.00000
  155     -5.27313    2.00000
  156     -5.27306    2.00000
  157     -5.27301    2.00000
  158     -5.27300    2.00000
  159     -4.91548    2.00000
  160     -4.51443    2.00000
  161     -4.51439    2.00000
  162     -4.51324    2.00000
  163     -4.51315    2.00000
  164     -4.51307    2.00000
  165     -4.51306    2.00000
  166     -3.64561    2.00000
  167     -3.64546    2.00000
  168     -3.63940    2.00000
  169     -3.63924    2.00000
  170     -3.63910    2.00000
  171     -3.63909    2.00000
  172     -3.55514    2.00000
  173     -3.55495    2.00000
  174     -3.55493    2.00000
  175     -3.55478    2.00000
  176     -3.50335    2.00000
  177     -3.49414    2.00000
  178     -3.46207    2.00000
  179     -3.33284    2.00000

Fermi level: inf


Forces in eV/Ang:
  0 Ca    0.00000    0.00000   -0.03851
  1 Ca    0.00845   -0.00037   -0.06455
  2 Ca   -0.00845   -0.00037   -0.06455
  3 Ca    0.00391    0.00750   -0.06455
  4 Ca    0.00000   -0.00000   -0.02921
  5 Ca   -0.00391    0.00750   -0.06455
  6 Ca   -0.00454   -0.00713   -0.06455
  7 Ca    0.00454   -0.00713   -0.06455
  8 Ca    0.00000    0.00000   -0.02756
  9 Ca   -0.00784   -0.00453    0.04796
 10 Ca    0.00000   -0.02200    0.04951
 11 Ca    0.00784   -0.00453    0.04796
 12 Ca   -0.01905    0.01100    0.04951
 13 Ca    0.01905    0.01100    0.04951
 14 Ca    0.00000   -0.00709    0.04890
 15 Ca    0.00000    0.00905    0.04796
 16 Ca   -0.00614    0.00354    0.04890
 17 Ca    0.00614    0.00354    0.04890
 18 Ca    0.00000   -0.00905   -0.04796
 19 Ca   -0.00614   -0.00354   -0.04890
 20 Ca    0.00614   -0.00354   -0.04890
 21 Ca    0.01905   -0.01100   -0.04951
 22 Ca    0.00000    0.00709   -0.04890
 23 Ca   -0.01905   -0.01100   -0.04951
 24 Ca    0.00784    0.00453   -0.04796
 25 Ca   -0.00784    0.00453   -0.04796
 26 Ca    0.00000    0.02200   -0.04951
 27 Ca    0.00000   -0.00000    0.03851
 28 Ca    0.00845    0.00037    0.06455
 29 Ca   -0.00845    0.00037    0.06455
 30 Ca    0.00454    0.00713    0.06455
 31 Ca    0.00000    0.00000    0.02756
 32 Ca   -0.00454    0.00713    0.06455
 33 Ca   -0.00391   -0.00750    0.06455
 34 Ca    0.00391   -0.00750    0.06455
 35 Ca    0.00000    0.00000    0.02921

System changes: positions 

Initializing position-dependent things.

Density initialized from wave functions
                                                        
                                                        
                                                        
                                                        
                                                        
                     Ca        Ca        Ca             
                                                        
              Ca        Ca        Ca                    
                      Ca        Ca        Ca            
       Ca        Ca        Ca                           
                Ca       Ca        Ca                   
                                                        
         Ca       Ca       CCa      Ca        Ca        
                                                        
                                                        
                    Ca       Ca        Ca               
                                                        
             Ca      CCa       CCa       Ca             
                                                        
              Ca        Ca        Ca                    
                                                        
       Ca        Ca        Ca                           
                                                        
                                                        
                                                        
                                                        

Positions:
   0 Ca     0.000000    0.000000    9.999450    ( 0.0000,  0.0000,  0.0000)
   1 Ca     3.945777   -0.000005    9.999078    ( 0.0000,  0.0000,  0.0000)
   2 Ca     7.891191   -0.000005    9.999078    ( 0.0000,  0.0000,  0.0000)
   3 Ca     1.972884    3.417145    9.999078    ( 0.0000,  0.0000,  0.0000)
   4 Ca     5.918484    3.417038    9.999583    ( 0.0000,  0.0000,  0.0000)
   5 Ca     9.864084    3.417145    9.999078    ( 0.0000,  0.0000,  0.0000)
   6 Ca     3.945591    6.833974    9.999078    ( 0.0000,  0.0000,  0.0000)
   7 Ca     7.891377    6.833974    9.999078    ( 0.0000,  0.0000,  0.0000)
   8 Ca    11.836968    6.834076    9.999606    ( 0.0000,  0.0000,  0.0000)
   9 Ca     1.972716    1.138948   13.222300    ( 0.0000,  0.0000,  0.0000)
  10 Ca     5.918484    1.138698   13.222322    ( 0.0000,  0.0000,  0.0000)
  11 Ca     9.864252    1.138948   13.222300    ( 0.0000,  0.0000,  0.0000)
  12 Ca     3.945384    4.556208   13.222322    ( 0.0000,  0.0000,  0.0000)
  13 Ca     7.891584    4.556208   13.222322    ( 0.0000,  0.0000,  0.0000)
  14 Ca    11.836968    4.555950   13.222313    ( 0.0000,  0.0000,  0.0000)
  15 Ca     5.918484    7.973218   13.222300    ( 0.0000,  0.0000,  0.0000)
  16 Ca     9.864052    7.973140   13.222313    ( 0.0000,  0.0000,  0.0000)
  17 Ca    13.809883    7.973140   13.222313    ( 0.0000,  0.0000,  0.0000)
  18 Ca     0.000000    2.277896   16.442544    ( 0.0000,  0.0000,  0.0000)
  19 Ca     3.945568    2.277975   16.442530    ( 0.0000,  0.0000,  0.0000)
  20 Ca     7.891399    2.277975   16.442530    ( 0.0000,  0.0000,  0.0000)
  21 Ca     1.973100    5.694907   16.442522    ( 0.0000,  0.0000,  0.0000)
  22 Ca     5.918484    5.695165   16.442530    ( 0.0000,  0.0000,  0.0000)
  23 Ca     9.863867    5.694907   16.442522    ( 0.0000,  0.0000,  0.0000)
  24 Ca     3.945768    9.112167   16.442544    ( 0.0000,  0.0000,  0.0000)
  25 Ca     7.891200    9.112167   16.442544    ( 0.0000,  0.0000,  0.0000)
  26 Ca    11.836968    9.112416   16.442522    ( 0.0000,  0.0000,  0.0000)
  27 Ca     0.000000   -0.000000   19.665394    ( 0.0000,  0.0000,  0.0000)
  28 Ca     3.945777    0.000005   19.665766    ( 0.0000,  0.0000,  0.0000)
  29 Ca     7.891191    0.000005   19.665766    ( 0.0000,  0.0000,  0.0000)
  30 Ca     1.972893    3.417140   19.665766    ( 0.0000,  0.0000,  0.0000)
  31 Ca     5.918484    3.417038   19.665237    ( 0.0000,  0.0000,  0.0000)
  32 Ca     9.864075    3.417140   19.665766    ( 0.0000,  0.0000,  0.0000)
  33 Ca     3.945600    6.833969   19.665766    ( 0.0000,  0.0000,  0.0000)
  34 Ca     7.891367    6.833969   19.665766    ( 0.0000,  0.0000,  0.0000)
  35 Ca    11.836968    6.834076   19.665261    ( 0.0000,  0.0000,  0.0000)

Unit cell:
           periodic     x           y           z      points  spacing
  1. axis:    yes   11.836968    0.000000    0.000000    64     0.1602
  2. axis:    yes    5.918484   10.251115    0.000000    64     0.1602
  3. axis:    no     0.000000    0.000000   29.664844   184     0.1612

  Lengths:  11.836968  11.836968  29.664844
  Angles:   90.000000  90.000000  60.000000

Effective grid spacing dv^(1/3) = 0.1684

     iter     time        total  log10-change:
                         energy  eigst   dens
iter:   1 02:10:39 -1587.995641  -4.40
iter:   2 02:11:18 -1587.995693  -4.72  -4.10c
iter:   3 02:11:57 -1587.995736c -5.08  -3.94
iter:   4 02:12:36 -1587.995696c -5.32  -3.83
Writing to output.gpw (mode='')

iter:   5 02:13:16 -1587.995614c -5.52  -3.81
iter:   6 02:13:55 -1587.995624c -5.46  -3.97
iter:   7 02:14:33 -1587.995643c -5.58  -3.99
iter:   8 02:15:12 -1587.995640c -5.23  -4.06c
iter:   9 02:15:51 -1587.995636c -5.63  -4.18c
Writing to output.gpw (mode='')

iter:  10 02:16:31 -1587.995652c -5.88  -4.16c
iter:  11 02:17:10 -1587.995651c -5.93  -4.08c
iter:  12 02:17:49 -1587.995661c -5.60  -4.05c
iter:  13 02:18:28 -1587.995664c -6.09  -4.02c
iter:  14 02:19:07 -1587.995646c -6.33  -3.99
Writing to output.gpw (mode='')

iter:  15 02:19:46 -1587.995623c -6.31  -4.01c
iter:  16 02:20:25 -1587.995619c -6.08  -4.09c
iter:  17 02:21:04 -1587.995613c -6.31  -4.18c
iter:  18 02:21:43 -1587.995622c -5.75  -4.46c
iter:  19 02:22:21 -1587.995618c -6.08  -4.44c
Writing to output.gpw (mode='')

iter:  20 02:23:01 -1587.995613c -6.50  -4.46c
iter:  21 02:23:40 -1587.995616c -6.68  -4.68c
iter:  22 02:24:19 -1587.995617c -6.98  -4.58c
iter:  23 02:24:58 -1587.995614c -7.07  -4.53c
iter:  24 02:25:37 -1587.995614c -7.33  -4.63c
Writing to output.gpw (mode='')

iter:  25 02:26:16 -1587.995615c -7.17  -4.60c
iter:  26 02:26:55 -1587.995615c -7.50c -4.51c

Converged after 26 iterations.

Dipole moment: (-21.920463, -12.655785, -0.000000) |e|*Ang

Energy contributions relative to reference atoms: (reference = -666391.292358)

Kinetic:       +357.944895
Potential:     -254.123153
External:        +0.000000
XC:            -1674.463306
Entropy (-ST):   -0.000000
Local:          -17.354051
--------------------------
Free energy:   -1587.995615
Extrapolated:  -1587.995615

Dipole-layer corrected work functions: -inf, -inf eV

 Band  Eigenvalues  Occupancy
    0    -46.31993    2.00000
    1    -46.31993    2.00000
    2    -46.31645    2.00000
    3    -46.31645    2.00000
    4    -46.31644    2.00000
    5    -46.31644    2.00000
    6    -46.31644    2.00000
    7    -46.31644    2.00000
    8    -46.31644    2.00000
    9    -46.31644    2.00000
   10    -46.31376    2.00000
   11    -46.31376    2.00000
   12    -46.30236    2.00000
   13    -46.30236    2.00000
   14    -46.30216    2.00000
   15    -46.30216    2.00000
   16    -46.30141    2.00000
   17    -46.30141    2.00000
   18    -45.91199    2.00000
   19    -45.90653    2.00000
   20    -45.90549    2.00000
   21    -45.90544    2.00000
   22    -45.90544    2.00000
   23    -45.90538    2.00000
   24    -45.90538    2.00000
   25    -45.90531    2.00000
   26    -45.90233    2.00000
   27    -45.90229    2.00000
   28    -45.90229    2.00000
   29    -45.90223    2.00000
   30    -45.90223    2.00000
   31    -45.90217    2.00000
   32    -45.90111    2.00000
   33    -45.90110    2.00000
   34    -45.90110    2.00000
   35    -45.90110    2.00000
   36    -27.28232    2.00000
   37    -27.28210    2.00000
   38    -27.27415    2.00000
   39    -27.27415    2.00000
   40    -27.27415    2.00000
   41    -27.27415    2.00000
   42    -27.27410    2.00000
   43    -27.27410    2.00000
   44    -27.27410    2.00000
   45    -27.27410    2.00000
   46    -27.27022    2.00000
   47    -27.27017    2.00000
   48    -27.27008    2.00000
   49    -27.27003    2.00000
   50    -27.26954    2.00000
   51    -27.26952    2.00000
   52    -27.26662    2.00000
   53    -27.26660    2.00000
   54    -27.22744    2.00000
   55    -27.22743    2.00000
   56    -27.22736    2.00000
   57    -27.22735    2.00000
   58    -27.22333    2.00000
   59    -27.22330    2.00000
   60    -27.22262    2.00000
   61    -27.22259    2.00000
   62    -27.22197    2.00000
   63    -27.22194    2.00000
   64    -27.22191    2.00000
   65    -27.22188    2.00000
   66    -27.22169    2.00000
   67    -27.22165    2.00000
   68    -27.22164    2.00000
   69    -27.22160    2.00000
   70    -27.21534    2.00000
   71    -27.21532    2.00000
   72    -27.21463    2.00000
   73    -27.21461    2.00000
   74    -27.17883    2.00000
   75    -27.17883    2.00000
   76    -27.17873    2.00000
   77    -27.17873    2.00000
   78    -27.17169    2.00000
   79    -27.17169    2.00000
   80    -27.17160    2.00000
   81    -27.17160    2.00000
   82    -27.17126    2.00000
   83    -27.17125    2.00000
   84    -27.17116    2.00000
   85    -27.17116    2.00000
   86    -27.15860    2.00000
   87    -27.15860    2.00000
   88    -27.15789    2.00000
   89    -27.15788    2.00000
   90    -26.88985    2.00000
   91    -26.87431    2.00000
   92    -26.87427    2.00000
   93    -26.87427    2.00000
   94    -26.87423    2.00000
   95    -26.87295    2.00000
   96    -26.87283    2.00000
   97    -26.85944    2.00000
   98    -26.85944    2.00000
   99    -26.85573    2.00000
  100    -26.85573    2.00000
  101    -26.85005    2.00000
  102    -26.85005    2.00000
  103    -26.84769    2.00000
  104    -26.84768    2.00000
  105    -26.84755    2.00000
  106    -26.84755    2.00000
  107    -26.83370    2.00000
  108    -26.83345    2.00000
  109    -26.83297    2.00000
  110    -26.82612    2.00000
  111    -26.82605    2.00000
  112    -26.82267    2.00000
  113    -26.82266    2.00000
  114    -26.82242    2.00000
  115    -26.82242    2.00000
  116    -26.82151    2.00000
  117    -26.82149    2.00000
  118    -26.82122    2.00000
  119    -26.82118    2.00000
  120    -26.81910    2.00000
  121    -26.81906    2.00000
  122    -26.81754    2.00000
  123    -26.81752    2.00000
  124    -26.81636    2.00000
  125    -26.81627    2.00000
  126    -26.81534    2.00000
  127    -26.81525    2.00000
  128    -26.78701    2.00000
  129    -26.78698    2.00000
  130    -26.78658    2.00000
  131    -26.78651    2.00000
  132    -26.78628    2.00000
  133    -26.78620    2.00000
  134    -26.77501    2.00000
  135    -26.77498    2.00000
  136    -26.77457    2.00000
  137    -26.77452    2.00000
  138    -26.77430    2.00000
  139    -26.77422    2.00000
  140    -26.76925    2.00000
  141    -26.76854    2.00000
  142    -26.76124    2.00000
  143    -26.76054    2.00000
  144     -7.19238    2.00000
  145     -6.71840    2.00000
  146     -5.87624    2.00000
  147     -5.69849    2.00000
  148     -5.69833    2.00000
  149     -5.69089    2.00000
  150     -5.69079    2.00000
  151     -5.69073    2.00000
  152     -5.69073    2.00000
  153     -5.28424    2.00000
  154     -5.28420    2.00000
  155     -5.27344    2.00000
  156     -5.27332    2.00000
  157     -5.27324    2.00000
  158     -5.27319    2.00000
  159     -4.91639    2.00000
  160     -4.51536    2.00000
  161     -4.51535    2.00000
  162     -4.51439    2.00000
  163     -4.51422    2.00000
  164     -4.51420    2.00000
  165     -4.51412    2.00000
  166     -3.64631    2.00000
  167     -3.64622    2.00000
  168     -3.64034    2.00000
  169     -3.64011    2.00000
  170     -3.64004    2.00000
  171     -3.63996    2.00000
  172     -3.55565    2.00000
  173     -3.55546    2.00000
  174     -3.55535    2.00000
  175     -3.55519    2.00000
  176     -3.50414    2.00000
  177     -3.49504    2.00000
  178     -3.46312    2.00000
  179     -3.33307    2.00000

Fermi level: inf

Writing to output.gpw (mode='')


Forces in eV/Ang:
  0 Ca    0.00000   -0.00000   -0.03689
  1 Ca    0.00861    0.00045   -0.06378
  2 Ca   -0.00861    0.00045   -0.06378
  3 Ca    0.00470    0.00723   -0.06378
  4 Ca    0.00000   -0.00000   -0.02904
  5 Ca   -0.00470    0.00723   -0.06378
  6 Ca   -0.00392   -0.00768   -0.06378
  7 Ca    0.00392   -0.00768   -0.06378
  8 Ca    0.00000    0.00000   -0.02887
  9 Ca   -0.00785   -0.00454    0.04487
 10 Ca    0.00000   -0.02023    0.04605
 11 Ca    0.00785   -0.00454    0.04487
 12 Ca   -0.01752    0.01011    0.04605
 13 Ca    0.01752    0.01011    0.04605
 14 Ca   -0.00000   -0.00734    0.04729
 15 Ca    0.00000    0.00907    0.04487
 16 Ca   -0.00636    0.00367    0.04729
 17 Ca    0.00636    0.00367    0.04729
 18 Ca    0.00000   -0.00907   -0.04487
 19 Ca   -0.00636   -0.00367   -0.04729
 20 Ca    0.00636   -0.00367   -0.04729
 21 Ca    0.01752   -0.01011   -0.04605
 22 Ca    0.00000    0.00734   -0.04729
 23 Ca   -0.01752   -0.01011   -0.04605
 24 Ca    0.00785    0.00454   -0.04487
 25 Ca   -0.00785    0.00454   -0.04487
 26 Ca    0.00000    0.02023   -0.04605
 27 Ca    0.00000   -0.00000    0.03689
 28 Ca    0.00861   -0.00045    0.06378
 29 Ca   -0.00861   -0.00045    0.06378
 30 Ca    0.00392    0.00768    0.06378
 31 Ca    0.00000   -0.00000    0.02887
 32 Ca   -0.00392    0.00768    0.06378
 33 Ca   -0.00470   -0.00723    0.06378
 34 Ca    0.00470   -0.00723    0.06378
 35 Ca    0.00000   -0.00000    0.02904

System changes: positions 

Initializing position-dependent things.

Density initialized from wave functions
                                                        
                                                        
                                                        
                                                        
                                                        
                     Ca        Ca        Ca             
                                                        
              Ca        Ca        Ca                    
                      Ca        Ca        Ca            
       Ca        Ca        Ca                           
                Ca       Ca        Ca                   
                                                        
         Ca       Ca       CCa      Ca        Ca        
                                                        
                    Ca       Ca        Ca               
                                                        
                                                        
             Ca      CCa       CCa       Ca             
                                                        
              Ca        Ca        Ca                    
                                                        
       Ca        Ca        Ca                           
                                                        
                                                        
                                                        
                                                        

Positions:
   0 Ca     0.000000    0.000000    9.993713    ( 0.0000,  0.0000,  0.0000)
   1 Ca     3.947114    0.000062    9.989168    ( 0.0000,  0.0000,  0.0000)
   2 Ca     7.889854    0.000062    9.989168    ( 0.0000,  0.0000,  0.0000)
   3 Ca     1.973610    3.418270    9.989168    ( 0.0000,  0.0000,  0.0000)
   4 Ca     5.918484    3.417038    9.995070    ( 0.0000,  0.0000,  0.0000)
   5 Ca     9.863357    3.418270    9.989168    ( 0.0000,  0.0000,  0.0000)
   6 Ca     3.944980    6.832783    9.989168    ( 0.0000,  0.0000,  0.0000)
   7 Ca     7.891987    6.832783    9.989168    ( 0.0000,  0.0000,  0.0000)
   8 Ca    11.836968    6.834076    9.995127    ( 0.0000,  0.0000,  0.0000)
   9 Ca     1.971496    1.138244   13.229282    ( 0.0000,  0.0000,  0.0000)
  10 Ca     5.918484    1.135549   13.229489    ( 0.0000,  0.0000,  0.0000)
  11 Ca     9.865472    1.138244   13.229282    ( 0.0000,  0.0000,  0.0000)
  12 Ca     3.942656    4.557783   13.229489    ( 0.0000,  0.0000,  0.0000)
  13 Ca     7.894311    4.557783   13.229489    ( 0.0000,  0.0000,  0.0000)
  14 Ca    11.836968    4.554810   13.229666    ( 0.0000,  0.0000,  0.0000)
  15 Ca     5.918484    7.974627   13.229282    ( 0.0000,  0.0000,  0.0000)
  16 Ca     9.863065    7.973710   13.229666    ( 0.0000,  0.0000,  0.0000)
  17 Ca    13.810870    7.973710   13.229666    ( 0.0000,  0.0000,  0.0000)
  18 Ca    -0.000000    2.276487   16.435562    ( 0.0000,  0.0000,  0.0000)
  19 Ca     3.944581    2.277405   16.435178    ( 0.0000,  0.0000,  0.0000)
  20 Ca     7.892386    2.277405   16.435178    ( 0.0000,  0.0000,  0.0000)
  21 Ca     1.975827    5.693332   16.435354    ( 0.0000,  0.0000,  0.0000)
  22 Ca     5.918484    5.696304   16.435178    ( 0.0000,  0.0000,  0.0000)
  23 Ca     9.861140    5.693332   16.435354    ( 0.0000,  0.0000,  0.0000)
  24 Ca     3.946988    9.112871   16.435562    ( 0.0000,  0.0000,  0.0000)
  25 Ca     7.889980    9.112871   16.435562    ( 0.0000,  0.0000,  0.0000)
  26 Ca    11.836968    9.115565   16.435354    ( 0.0000,  0.0000,  0.0000)
  27 Ca    -0.000000   -0.000000   19.671131    ( 0.0000,  0.0000,  0.0000)
  28 Ca     3.947114   -0.000062   19.675676    ( 0.0000,  0.0000,  0.0000)
  29 Ca     7.889854   -0.000062   19.675676    ( 0.0000,  0.0000,  0.0000)
  30 Ca     1.973504    3.418331   19.675676    ( 0.0000,  0.0000,  0.0000)
  31 Ca     5.918484    3.417038   19.669716    ( 0.0000,  0.0000,  0.0000)
  32 Ca     9.863464    3.418331   19.675676    ( 0.0000,  0.0000,  0.0000)
  33 Ca     3.944874    6.832845   19.675676    ( 0.0000,  0.0000,  0.0000)
  34 Ca     7.892094    6.832845   19.675676    ( 0.0000,  0.0000,  0.0000)
  35 Ca    11.836968    6.834076   19.669773    ( 0.0000,  0.0000,  0.0000)

Unit cell:
           periodic     x           y           z      points  spacing
  1. axis:    yes   11.836968    0.000000    0.000000    64     0.1602
  2. axis:    yes    5.918484   10.251115    0.000000    64     0.1602
  3. axis:    no     0.000000    0.000000   29.664844   184     0.1612

  Lengths:  11.836968  11.836968  29.664844
  Angles:   90.000000  90.000000  60.000000

Effective grid spacing dv^(1/3) = 0.1684

     iter     time        total  log10-change:
                         energy  eigst   dens
iter:   1 02:27:46 -1588.006196  -2.45
iter:   2 02:28:25 -1588.009557  -3.01  -3.16
iter:   3 02:29:04 -1588.010987c -3.46  -2.99
iter:   4 02:29:43 -1588.008906c -3.74  -2.89
Writing to output.gpw (mode='')

iter:   5 02:30:25 -1588.008079c -3.97  -2.98
iter:   6 02:31:04 -1588.008433c -3.95  -3.27
iter:   7 02:31:43 -1588.007905c -4.35  -3.24
iter:   8 02:32:21 -1588.008533c -3.92  -3.29
iter:   9 02:33:00 -1588.009985c -3.64  -3.36
Writing to output.gpw (mode='')

iter:  10 02:33:40 -1588.010744c -3.75  -3.21
iter:  11 02:34:19 -1588.011601c -3.76  -3.12
iter:  12 02:34:58 -1588.011216c -3.99  -3.04
iter:  13 02:35:36 -1588.014063c -4.08  -3.01
iter:  14 02:36:15 -1588.015436c -3.70  -2.92
Writing to output.gpw (mode='')

iter:  15 02:36:55 -1588.016329c -4.02  -2.87
iter:  16 02:37:34 -1588.015171c -3.95  -2.83
iter:  17 02:38:13 -1588.009717c -4.44  -2.81
iter:  18 02:38:52 -1588.013526c -4.71  -2.88
iter:  19 02:39:31 -1588.005193c -3.51  -2.85
Writing to output.gpw (mode='')

iter:  20 02:40:13 -1588.007057c -3.13  -3.35
iter:  21 02:40:52 -1588.007394c -3.80  -3.52
iter:  22 02:41:31 -1588.007334c -4.38  -3.55
iter:  23 02:42:10 -1588.007383c -4.24  -3.56
iter:  24 02:42:49 -1588.008321c -4.50  -3.59
Writing to output.gpw (mode='')

iter:  25 02:43:28 -1588.009025c -4.18  -3.40
iter:  26 02:44:07 -1588.009344c -4.15  -3.29
iter:  27 02:44:46 -1588.007287c -4.46  -3.23
iter:  28 02:45:25 -1588.007334c -4.67  -3.33
iter:  29 02:46:04 -1588.007212c -4.44  -3.40
Writing to output.gpw (mode='')

iter:  30 02:46:44 -1588.007885c -4.80  -3.50
iter:  31 02:47:23 -1588.007385c -4.85  -3.44
iter:  32 02:48:02 -1588.007455c -4.51  -3.54
iter:  33 02:48:41 -1588.007703c -4.48  -3.54
iter:  34 02:49:20 -1588.008044c -4.25  -3.48
Writing to output.gpw (mode='')

iter:  35 02:49:59 -1588.007633c -4.02  -3.41
iter:  36 02:50:38 -1588.009413c -3.70  -3.63
iter:  37 02:51:18 -1588.007642c -4.30  -3.32
iter:  38 02:51:56 -1588.007402c -4.32  -3.43
iter:  39 02:52:35 -1588.007769c -4.07  -3.85
Writing to output.gpw (mode='')

iter:  40 02:53:15 -1588.007883c -4.23  -3.67
iter:  41 02:53:54 -1588.007630c -4.81  -3.57
iter:  42 02:54:33 -1588.007498c -5.44  -3.58
iter:  43 02:55:12 -1588.007792c -5.25  -3.63
iter:  44 02:55:51 -1588.008424c -4.50  -3.52
Writing to output.gpw (mode='')

iter:  45 02:56:30 -1588.007535c -4.85  -3.37
iter:  46 02:57:09 -1588.008498c -4.87  -3.44
iter:  47 02:57:48 -1588.007798c -5.18  -3.32
iter:  48 02:58:27 -1588.007508c -5.52  -3.36
iter:  49 02:59:06 -1588.007098c -4.61  -3.44
Writing to output.gpw (mode='')

iter:  50 02:59:46 -1588.008388c -4.08  -3.70
iter:  51 03:00:25 -1588.008125c -4.59  -3.42
iter:  52 03:01:03 -1588.007336c -4.98  -3.38
iter:  53 03:01:42 -1588.007728c -4.29  -3.51
iter:  54 03:02:21 -1588.007378c -4.38  -3.69
Writing to output.gpw (mode='')

iter:  55 03:03:01 -1588.007523c -4.91  -3.93
iter:  56 03:03:40 -1588.007483c -5.21  -3.91
iter:  57 03:04:19 -1588.007634c -5.29  -3.90
iter:  58 03:04:57 -1588.007621c -5.12  -3.70
iter:  59 03:05:36 -1588.007710c -5.51  -3.67
Writing to output.gpw (mode='')

iter:  60 03:06:16 -1588.007714c -5.15  -3.60
iter:  61 03:06:55 -1588.007396c -5.54  -3.57
iter:  62 03:07:34 -1588.007480c -6.29  -3.73
iter:  63 03:08:13 -1588.007477c -6.66  -3.71
iter:  64 03:08:51 -1588.008218c -4.86  -3.73
Writing to output.gpw (mode='')

iter:  65 03:09:31 -1588.008519c -4.74  -3.37
iter:  66 03:10:10 -1588.008461c -4.86  -3.31
iter:  67 03:10:49 -1588.007100c -4.66  -3.29
iter:  68 03:11:28 -1588.007377c -4.88  -3.61
iter:  69 03:12:07 -1588.008608c -4.76  -3.62
Writing to output.gpw (mode='')

iter:  70 03:12:47 -1588.008547c -4.63  -3.31
iter:  71 03:13:25 -1588.007725c -5.31  -3.28
iter:  72 03:14:04 -1588.008681c -5.00  -3.33
iter:  73 03:14:43 -1588.007001c -4.60  -3.24
iter:  74 03:15:22 -1588.007151c -3.95  -3.44
Writing to output.gpw (mode='')

iter:  75 03:16:02 -1588.007380c -4.01  -3.93
iter:  76 03:16:41 -1588.007386c -5.00  -3.97
iter:  77 03:17:20 -1588.007413c -5.22  -3.97
iter:  78 03:17:59 -1588.007481c -4.82  -3.98
iter:  79 03:18:37 -1588.007464c -4.87  -3.91
Writing to output.gpw (mode='')

iter:  80 03:19:17 -1588.007563c -4.61  -4.01c
iter:  81 03:19:56 -1588.007546c -5.04  -3.86
iter:  82 03:20:35 -1588.007647c -5.21  -3.80
iter:  83 03:21:14 -1588.007501c -5.97  -3.68
iter:  84 03:21:53 -1588.007600c -5.86  -3.70
Writing to output.gpw (mode='')

iter:  85 03:22:33 -1588.007637c -5.68  -3.63
iter:  86 03:23:12 -1588.007439c -5.76  -3.60
iter:  87 03:23:50 -1588.007328c -5.24  -3.67
iter:  88 03:24:29 -1588.007350c -4.61  -3.86
iter:  89 03:25:08 -1588.007390c -5.08  -4.00c
Writing to output.gpw (mode='')

iter:  90 03:25:48 -1588.007635c -5.09  -4.06c
iter:  91 03:26:27 -1588.007682c -4.87  -3.70
iter:  92 03:27:06 -1588.007574c -5.56  -3.64
iter:  93 03:27:45 -1588.007635c -5.83  -3.63
iter:  94 03:28:24 -1588.007326c -5.21  -3.59
Writing to output.gpw (mode='')

iter:  95 03:29:03 -1588.007415c -5.67  -3.89
iter:  96 03:29:42 -1588.007522c -5.76  -3.88
iter:  97 03:30:21 -1588.007545c -5.30  -3.72
iter:  98 03:31:00 -1588.007690c -5.07  -3.72
iter:  99 03:31:39 -1588.007864c -4.99  -3.63
Writing to output.gpw (mode='')

iter: 100 03:32:19 -1588.007313c -4.82  -3.53
iter: 101 03:32:57 -1588.007351c -4.60  -3.77
iter: 102 03:33:36 -1588.007384c -4.81  -4.03c
iter: 103 03:34:15 -1588.007399c -5.51  -4.19c
iter: 104 03:34:54 -1588.007420c -5.73  -4.24c
Writing to output.gpw (mode='')

iter: 105 03:35:34 -1588.007441c -5.73  -4.15c
iter: 106 03:36:13 -1588.007472c -5.61  -4.05c
iter: 107 03:36:52 -1588.007384c -5.33  -3.94
iter: 108 03:37:31 -1588.007419c -4.89  -4.28c
iter: 109 03:38:09 -1588.007403c -5.50  -4.24c
Writing to output.gpw (mode='')

iter: 110 03:38:49 -1588.007405c -6.08  -4.34c
iter: 111 03:39:28 -1588.007422c -6.02  -4.34c
iter: 112 03:40:07 -1588.007426c -5.61  -4.22c
iter: 113 03:40:46 -1588.007405c -5.80  -4.17c
iter: 114 03:41:25 -1588.007407c -6.44  -4.50c
Writing to output.gpw (mode='')

iter: 115 03:42:04 -1588.007406c -6.97  -4.49c
iter: 116 03:42:43 -1588.007425c -6.04  -4.50c
iter: 117 03:43:22 -1588.007408c -6.47  -4.22c
iter: 118 03:44:01 -1588.007417c -6.76  -4.27c
iter: 119 03:44:40 -1588.007430c -6.43  -4.23c
Writing to output.gpw (mode='')

iter: 120 03:45:20 -1588.007457c -6.03  -4.14c
iter: 121 03:45:58 -1588.007462c -5.72  -4.03c
iter: 122 03:46:37 -1588.007409c -6.22  -3.98
iter: 123 03:47:16 -1588.007400c -6.15  -4.09c
iter: 124 03:47:55 -1588.007415c -6.86  -4.19c
Writing to output.gpw (mode='')

iter: 125 03:48:35 -1588.007495c -5.80  -4.19c
iter: 126 03:49:14 -1588.007399c -5.98  -3.84
iter: 127 03:49:53 -1588.007412c -5.93  -3.96
iter: 128 03:50:31 -1588.007408c -6.22  -3.99
iter: 129 03:51:10 -1588.007418c -6.54  -4.05c
Writing to output.gpw (mode='')

iter: 130 03:51:50 -1588.007449c -6.60  -4.06c
iter: 131 03:52:29 -1588.007439c -6.79  -3.97
iter: 132 03:53:08 -1588.007440c -5.14  -3.97
iter: 133 03:53:47 -1588.007431c -5.47  -4.12c
iter: 134 03:54:26 -1588.007409c -6.02  -4.14c
Writing to output.gpw (mode='')

iter: 135 03:55:05 -1588.007408c -6.23  -4.23c
iter: 136 03:55:44 -1588.007406c -6.48  -4.26c
iter: 137 03:56:23 -1588.007405c -6.18  -4.31c
iter: 138 03:57:02 -1588.007409c -5.58  -4.57c
iter: 139 03:57:41 -1588.007407c -6.50  -4.54c
Writing to output.gpw (mode='')

iter: 140 03:58:21 -1588.007406c -6.93  -4.65c
iter: 141 03:59:00 -1588.007406c -7.06  -4.75c
iter: 142 03:59:38 -1588.007406c -7.52c -4.76c

Converged after 142 iterations.

Dipole moment: (-21.914567, -12.652381, 0.000000) |e|*Ang

Energy contributions relative to reference atoms: (reference = -666391.292358)

Kinetic:       +357.391535
Potential:     -253.811192
External:        +0.000000
XC:            -1674.240494
Entropy (-ST):   -0.000000
Local:          -17.347255
--------------------------
Free energy:   -1588.007406
Extrapolated:  -1588.007406

Dipole-layer corrected work functions: -inf, -inf eV

 Band  Eigenvalues  Occupancy
    0    -46.32591    2.00000
    1    -46.32591    2.00000
    2    -46.32256    2.00000
    3    -46.32256    2.00000
    4    -46.32256    2.00000
    5    -46.32256    2.00000
    6    -46.32254    2.00000
    7    -46.32254    2.00000
    8    -46.32253    2.00000
    9    -46.32253    2.00000
   10    -46.31987    2.00000
   11    -46.31987    2.00000
   12    -46.30609    2.00000
   13    -46.30609    2.00000
   14    -46.30415    2.00000
   15    -46.30415    2.00000
   16    -46.30348    2.00000
   17    -46.30348    2.00000
   18    -45.90838    2.00000
   19    -45.90283    2.00000
   20    -45.90228    2.00000
   21    -45.90228    2.00000
   22    -45.90168    2.00000
   23    -45.90153    2.00000
   24    -45.90121    2.00000
   25    -45.90121    2.00000
   26    -45.89909    2.00000
   27    -45.89909    2.00000
   28    -45.89844    2.00000
   29    -45.89809    2.00000
   30    -45.89805    2.00000
   31    -45.89805    2.00000
   32    -45.89707    2.00000
   33    -45.89707    2.00000
   34    -45.89706    2.00000
   35    -45.89706    2.00000
   36    -27.28720    2.00000
   37    -27.28700    2.00000
   38    -27.27976    2.00000
   39    -27.27976    2.00000
   40    -27.27975    2.00000
   41    -27.27975    2.00000
   42    -27.27969    2.00000
   43    -27.27969    2.00000
   44    -27.27969    2.00000
   45    -27.27969    2.00000
   46    -27.27517    2.00000
   47    -27.27516    2.00000
   48    -27.27318    2.00000
   49    -27.27318    2.00000
   50    -27.27171    2.00000
   51    -27.27170    2.00000
   52    -27.26930    2.00000
   53    -27.26928    2.00000
   54    -27.23299    2.00000
   55    -27.23298    2.00000
   56    -27.23293    2.00000
   57    -27.23291    2.00000
   58    -27.22890    2.00000
   59    -27.22887    2.00000
   60    -27.22818    2.00000
   61    -27.22816    2.00000
   62    -27.22645    2.00000
   63    -27.22644    2.00000
   64    -27.22620    2.00000
   65    -27.22619    2.00000
   66    -27.22615    2.00000
   67    -27.22614    2.00000
   68    -27.22588    2.00000
   69    -27.22587    2.00000
   70    -27.21909    2.00000
   71    -27.21907    2.00000
   72    -27.21838    2.00000
   73    -27.21836    2.00000
   74    -27.18455    2.00000
   75    -27.18455    2.00000
   76    -27.18430    2.00000
   77    -27.18430    2.00000
   78    -27.17561    2.00000
   79    -27.17561    2.00000
   80    -27.17516    2.00000
   81    -27.17516    2.00000
   82    -27.17467    2.00000
   83    -27.17467    2.00000
   84    -27.17420    2.00000
   85    -27.17419    2.00000
   86    -27.16270    2.00000
   87    -27.16270    2.00000
   88    -27.16199    2.00000
   89    -27.16199    2.00000
   90    -26.88682    2.00000
   91    -26.87160    2.00000
   92    -26.87156    2.00000
   93    -26.87061    2.00000
   94    -26.87057    2.00000
   95    -26.86963    2.00000
   96    -26.86956    2.00000
   97    -26.85602    2.00000
   98    -26.85602    2.00000
   99    -26.85226    2.00000
  100    -26.85226    2.00000
  101    -26.84667    2.00000
  102    -26.84623    2.00000
  103    -26.84444    2.00000
  104    -26.84430    2.00000
  105    -26.84384    2.00000
  106    -26.84370    2.00000
  107    -26.82996    2.00000
  108    -26.82981    2.00000
  109    -26.82903    2.00000
  110    -26.82225    2.00000
  111    -26.82153    2.00000
  112    -26.81875    2.00000
  113    -26.81851    2.00000
  114    -26.81829    2.00000
  115    -26.81802    2.00000
  116    -26.81751    2.00000
  117    -26.81740    2.00000
  118    -26.81724    2.00000
  119    -26.81713    2.00000
  120    -26.81484    2.00000
  121    -26.81481    2.00000
  122    -26.81355    2.00000
  123    -26.81298    2.00000
  124    -26.81254    2.00000
  125    -26.81200    2.00000
  126    -26.81117    2.00000
  127    -26.81111    2.00000
  128    -26.78380    2.00000
  129    -26.78336    2.00000
  130    -26.78328    2.00000
  131    -26.78306    2.00000
  132    -26.78281    2.00000
  133    -26.78257    2.00000
  134    -26.77130    2.00000
  135    -26.77085    2.00000
  136    -26.77081    2.00000
  137    -26.77061    2.00000
  138    -26.77036    2.00000
  139    -26.77008    2.00000
  140    -26.76570    2.00000
  141    -26.76499    2.00000
  142    -26.75736    2.00000
  143    -26.75666    2.00000
  144     -7.18826    2.00000
  145     -6.71093    2.00000
  146     -5.87962    2.00000
  147     -5.69484    2.00000
  148     -5.69270    2.00000
  149     -5.68752    2.00000
  150     -5.68741    2.00000
  151     -5.68626    2.00000
  152     -5.68626    2.00000
  153     -5.27654    2.00000
  154     -5.27614    2.00000
  155     -5.26644    2.00000
  156     -5.26631    2.00000
  157     -5.26492    2.00000
  158     -5.26487    2.00000
  159     -4.91679    2.00000
  160     -4.51692    2.00000
  161     -4.51674    2.00000
  162     -4.51634    2.00000
  163     -4.51580    2.00000
  164     -4.51566    2.00000
  165     -4.51559    2.00000
  166     -3.64581    2.00000
  167     -3.64510    2.00000
  168     -3.64157    2.00000
  169     -3.64126    2.00000
  170     -3.64045    2.00000
  171     -3.64031    2.00000
  172     -3.55022    2.00000
  173     -3.55002    2.00000
  174     -3.54897    2.00000
  175     -3.54881    2.00000
  176     -3.50173    2.00000
  177     -3.49318    2.00000
  178     -3.46582    2.00000
  179     -3.32512    2.00000

Fermi level: inf

Writing to output.gpw (mode='')


Forces in eV/Ang:
  0 Ca   -0.00000    0.00000   -0.01470
  1 Ca    0.00515   -0.00066   -0.04430
  2 Ca   -0.00515   -0.00066   -0.04430
  3 Ca    0.00200    0.00479   -0.04430
  4 Ca    0.00000    0.00000   -0.01685
  5 Ca   -0.00200    0.00479   -0.04430
  6 Ca   -0.00315   -0.00413   -0.04430
  7 Ca    0.00315   -0.00413   -0.04430
  8 Ca    0.00000   -0.00000   -0.01764
  9 Ca   -0.00303   -0.00175    0.01741
 10 Ca    0.00000   -0.00905    0.02210
 11 Ca    0.00303   -0.00175    0.01741
 12 Ca   -0.00784    0.00452    0.02210
 13 Ca    0.00784    0.00452    0.02210
 14 Ca    0.00000   -0.00493    0.02651
 15 Ca    0.00000    0.00350    0.01741
 16 Ca   -0.00427    0.00246    0.02651
 17 Ca    0.00427    0.00246    0.02651
 18 Ca   -0.00000   -0.00350   -0.01741
 19 Ca   -0.00427   -0.00246   -0.02651
 20 Ca    0.00427   -0.00246   -0.02651
 21 Ca    0.00784   -0.00452   -0.02210
 22 Ca    0.00000    0.00493   -0.02651
 23 Ca   -0.00784   -0.00452   -0.02210
 24 Ca    0.00303    0.00175   -0.01741
 25 Ca   -0.00303    0.00175   -0.01741
 26 Ca    0.00000    0.00905   -0.02210
 27 Ca   -0.00000    0.00000    0.01470
 28 Ca    0.00515    0.00066    0.04430
 29 Ca   -0.00515    0.00066    0.04430
 30 Ca    0.00315    0.00413    0.04430
 31 Ca    0.00000    0.00000    0.01764
 32 Ca   -0.00315    0.00413    0.04430
 33 Ca   -0.00200   -0.00479    0.04430
 34 Ca    0.00200   -0.00479    0.04430
 35 Ca    0.00000    0.00000    0.01685

Timing:                                      incl.     excl.
-------------------------------------------------------------------
Density initialized from wave functions:     1.945     0.214   0.0% |
 Symmetrize density:                         1.731     1.731   0.0% |
Forces:                                      8.786     8.786   0.0% |
Hamiltonian:                               158.629     0.000   0.0% |
 Atomic:                                     0.718     0.003   0.0% |
  XC Correction:                             0.715     0.715   0.0% |
 Calculate atomic Hamiltonians:              0.143     0.143   0.0% |
 Communicate:                                0.729     0.729   0.0% |
 Hartree integrate/restrict:                 0.072     0.072   0.0% |
 Initialize Hamiltonian:                     0.000     0.000   0.0% |
 Poisson:                                    2.161     0.438   0.0% |
  Communicate from 1D:                       0.411     0.411   0.0% |
  Communicate from 2D:                       0.336     0.336   0.0% |
  Communicate to 1D:                         0.133     0.133   0.0% |
  Communicate to 2D:                         0.461     0.461   0.0% |
  FFT 1D:                                    0.216     0.216   0.0% |
  FFT 2D:                                    0.167     0.167   0.0% |
 XC 3D grid:                               154.796     6.796   0.0% |
  VdW-DF integral:                         148.000     0.583   0.0% |
   Convolution:                             14.807    14.807   0.0% |
   FFT:                                      3.470     3.470   0.0% |
   gather:                                  80.559    80.559   0.1% |
   hmm1:                                     3.301     3.301   0.0% |
   hmm2:                                     4.020     4.020   0.0% |
   iFFT:                                     3.480     3.480   0.0% |
   potential:                               22.175     0.229   0.0% |
    collect:                                 2.866     2.866   0.0% |
    p1:                                      8.707     8.707   0.0% |
    p2:                                      5.697     5.697   0.0% |
    sum:                                     4.676     4.676   0.0% |
   splines:                                 15.605    15.605   0.0% |
 vbar:                                       0.009     0.009   0.0% |
LCAO initialization:                         1.201     0.107   0.0% |
 LCAO eigensolver:                           0.524     0.001   0.0% |
  Calculate projections:                     0.000     0.000   0.0% |
  DenseAtomicCorrection:                     0.000     0.000   0.0% |
  Distribute overlap matrix:                 0.428     0.428   0.0% |
  Orbital Layouts:                           0.095     0.095   0.0% |
  Potential matrix:                          0.000     0.000   0.0% |
 LCAO to grid:                               0.069     0.069   0.0% |
 Set positions (LCAO WFS):                   0.501     0.349   0.0% |
  Basic WFS set positions:                   0.074     0.074   0.0% |
  Basis functions set positions:             0.001     0.001   0.0% |
  P tci:                                     0.000     0.000   0.0% |
  ST tci:                                    0.014     0.014   0.0% |
  mktci:                                     0.062     0.062   0.0% |
Redistribute:                                0.002     0.002   0.0% |
SCF-cycle:                               63007.919   132.783   0.2% |
 Davidson:                               38154.589 23652.000  37.4% |--------------|
  Apply hamiltonian:                      3073.447  3073.447   4.9% |-|
  Subspace diag:                          2176.022     0.098   0.0% |
   calc_h_matrix:                         1756.107   219.739   0.3% |
    Apply hamiltonian:                    1536.368  1536.368   2.4% ||
   diagonalize:                             61.915    61.915   0.1% |
   rotate_psi:                             357.902   357.902   0.6% |
  calc. matrices:                         8058.864  2278.720   3.6% ||
   Apply hamiltonian:                     5780.144  5780.144   9.1% |---|
  diagonalize:                             100.969   100.969   0.2% |
  rotate_psi:                             1093.287  1093.287   1.7% ||
 Density:                                  661.169     0.044   0.0% |
  Atomic density matrices:                   8.329     8.329   0.0% |
  Mix:                                      61.817    61.817   0.1% |
  Multipole moments:                         1.443     1.443   0.0% |
  Pseudo density:                          589.536    41.521   0.1% |
   Symmetrize density:                     548.014   548.014   0.9% |
 Hamiltonian:                            24050.234     0.074   0.0% |
  Atomic:                                  108.218     8.441   0.0% |
   XC Correction:                           99.777    99.777   0.2% |
  Calculate atomic Hamiltonians:            32.757    32.757   0.1% |
  Communicate:                             119.862   119.862   0.2% |
  Hartree integrate/restrict:               22.071    22.071   0.0% |
  Poisson:                                 294.643    90.091   0.1% |
   Communicate from 1D:                     39.504    39.504   0.1% |
   Communicate from 2D:                     41.224    41.224   0.1% |
   Communicate to 1D:                       24.642    24.642   0.0% |
   Communicate to 2D:                       44.275    44.275   0.1% |
   FFT 1D:                                  27.359    27.359   0.0% |
   FFT 2D:                                  27.549    27.549   0.0% |
  XC 3D grid:                            23471.072  1085.147   1.7% ||
   VdW-DF integral:                      22385.925    86.428   0.1% |
    Convolution:                          2355.201  2355.201   3.7% ||
    FFT:                                   558.844   558.844   0.9% |
    gather:                              14119.470 14119.470  22.3% |--------|
    hmm1:                                  520.499   520.499   0.8% |
    hmm2:                                  661.316   661.316   1.0% |
    iFFT:                                  554.752   554.752   0.9% |
    potential:                            3529.410    37.458   0.1% |
     collect:                              500.539   500.539   0.8% |
     p1:                                  1458.683  1458.683   2.3% ||
     p2:                                  1010.086  1010.086   1.6% ||
     sum:                                  522.644   522.644   0.8% |
    splines:                                 0.005     0.005   0.0% |
  vbar:                                      1.536     1.536   0.0% |
 Orthonormalize:                             9.144     0.001   0.0% |
  calc_s_matrix:                             0.516     0.516   0.0% |
  inverse-cholesky:                          7.536     7.536   0.0% |
  projections:                               0.000     0.000   0.0% |
  rotate_psi_s:                              1.092     1.092   0.0% |
Set symmetry:                                0.006     0.006   0.0% |
Other:                                      22.399    22.399   0.0% |
-------------------------------------------------------------------
Total:                                             63200.886 100.0%

Memory usage: 1.31 GiB
Date: Mon Feb 13 03:59:43 2023
