
  ___ ___ ___ _ _ _  
 |   |   |_  | | | | 
 | | | | | . | | | | 
 |__ |  _|___|_____|  22.8.0
 |___|_|             

User:   vazumah@c13.hercules
Date:   Tue Jan 24 05:51:21 2023
Arch:   x86_64
Pid:    23185
CWD:    /home/vazumah/Python_projects/LiNRR/autocad_start/slab_experiments/free_slabs_big_vacuum/Ca/fcc110/substrate
Python: 3.10.8
gpaw:   /home/vazumah/.conda/envs/GPAW/lib/python3.10/site-packages/gpaw
_gpaw:  /home/vazumah/.conda/envs/GPAW/lib/python3.10/site-packages/
        _gpaw.cpython-310-x86_64-linux-gnu.so
ase:    /home/vazumah/.conda/envs/GPAW/lib/python3.10/site-packages/ase (version 3.22.1)
numpy:  /home/vazumah/.conda/envs/GPAW/lib/python3.10/site-packages/numpy (version 1.24.1)
scipy:  /home/vazumah/.conda/envs/GPAW/lib/python3.10/site-packages/scipy (version 1.10.0)
libxc:  5.2.3
units:  Angstrom and eV
cores: 24
OpenMP: True
OMP_NUM_THREADS: 1

Input parameters:
  h: 0.16
  kpts: {size: [4, 4, 1]}
  maxiter: 999
  occupations: {name: fermi-dirac,
                width: 0.05}
  poissonsolver: {dipolelayer: xy}
  xc: BEEF-vdW

System changes: positions, numbers, cell, pbc, initial_charges, initial_magmoms 

Initialize ...

species:
  Ca:
    name: Calcium
    id: 0641b8f64fa1d43c6d3de45527ace046
    Z: 20.0
    valence: 10
    core: 10
    charge: 0.0
    file: /home/vazumah/.conda/envs/GPAW/share/gpaw/Ca.PBE.gz
    compensation charges: {type: gauss,
                           rc: 0.37,
                           lmax: 2}
    cutoffs: {filter: 2.10,
              core: 1.17}
    valence states:
      #              energy  rcut
      - 3s(2.00)   -47.086   1.175
      - 4s(2.00)    -3.766   1.175
      - 3p(6.00)   -28.008   1.154
      -  p          -0.797   1.154
      -  d           0.000   0.937
  
    # Using partial waves for Ca as LCAO basis

Reference energy: -666391.292358  # eV

Spin-paired calculation

Convergence criteria:
 Maximum [total energy] change in last 3 cyles: 0.0005 eV / electron
 Maximum integral of absolute [dens]ity change: 0.0001 electrons / valence electron
 Maximum integral of absolute [eigenst]ate change: 4e-08 eV^2 / valence electron
 Maximum number of scf [iter]ations: 999
 (Square brackets indicate name in SCF output, whereas a 'c' in
 the SCF output indicates the quantity has converged.)

Symmetries present (total): 4

  ( 1  0  0)  ( 1  0  0)  (-1  0  0)  (-1  0  0)
  ( 0  1  0)  ( 0 -1  0)  ( 0  1  0)  ( 0 -1  0)
  ( 0  0  1)  ( 0  0  1)  ( 0  0  1)  ( 0  0  1)

16 k-points: 4 x 4 x 1 Monkhorst-Pack grid
4 k-points in the irreducible part of the Brillouin zone
       k-points in crystal coordinates                weights
   0:     0.12500000    0.12500000    0.00000000          4/16
   1:     0.12500000    0.37500000    0.00000000          4/16
   2:     0.37500000    0.12500000    0.00000000          4/16
   3:     0.37500000    0.37500000    0.00000000          4/16

Wave functions: Uniform real-space grid
  Kinetic energy operator: 6*3+1=19 point O(h^6) finite-difference Laplacian
  ScaLapack parameters: grid=1x1, blocksize=None
  Wavefunction extrapolation:
    Improved wavefunction reuse through dual PAW basis 

Occupation numbers: Fermi-Dirac:
  width: 0.0500  # eV
 

Eigensolver
   Davidson(niter=2) 

Densities:
  Coarse grid: 104*72*160 grid
  Fine grid: 208*144*320 grid
  Total Charge: 0.000000 

Density mixing:
  Method: separate
  Backend: pulay
  Linear mixing parameter: 0.05
  old densities: 5
  Damping of long wavelength oscillations: 50 

Hamiltonian:
  XC and Coulomb potentials evaluated on a 208*144*320 grid
  Using the BEEF-vdW Exchange-Correlation functional
  Interpolation: tri-quintic (5. degree polynomial)
  Poisson solver: FastPoissonSolver using
    Stencil: 6*3+1=19 point O(h^6) finite-difference Laplacian
    FFT axes: [0, 1]
    FST axes: [2]

Dipole correction along z-axis 

XC parameters: BEEF-vdW with 2 nearest neighbor stencil

Memory estimate:
  Process memory now: 228.25 MiB
  Calculator: 1241.07 MiB
    Density: 96.35 MiB
      Arrays: 39.36 MiB
      Localized functions: 41.84 MiB
      Mixer: 15.14 MiB
    Hamiltonian: 29.04 MiB
      Arrays: 25.74 MiB
      XC: 0.00 MiB
      Poisson: 0.00 MiB
      vbar: 3.30 MiB
    Wavefunctions: 1115.69 MiB
      Arrays psit_nG: 545.01 MiB
      Eigensolver: 565.10 MiB
      Projections: 0.21 MiB
      Projectors: 5.37 MiB

Total number of cores used: 24
Parallelization over k-points: 4
Domain decomposition: 2 x 1 x 3

Number of atoms: 36
Number of atomic orbitals: 180
Number of bands in calculation: 180
Number of valence electrons: 360
Bands to converge: occupied

... initialized

Initializing position-dependent things.

Density initialized from atomic densities
Creating initial wave functions:
  180 bands from LCAO basis set

        .----------------------------------------.  
       /|                                        |  
      / |                                        |  
     /  |                                        |  
    /   |                                        |  
   /    |                                        |  
  /     |                                        |  
 *      |                                        |  
 |      |                                        |  
 |      |                                        |  
 |      |                                        |  
 |      |                                        |  
 |      |                                        |  
 |      |                                        |  
 |      |                                        |  
 |    Ca|          Ca            Ca              |  
 |      |     Ca           Ca            Ca      |  
 | Ca   |        Ca            Ca                |  
 |      |  Ca            Ca            Ca        |  
 Ca     |      Ca           Ca                   |  
 |    Ca|          Ca            Ca              |  
 |      |Ca   Ca       Ca  Ca       Ca   Ca      |  
 | Ca   |        Ca            Ca                |  
 |      |  Ca            Ca            Ca        |  
 Ca     |      Ca           Ca                   |  
 |      |Ca            Ca           Ca           |  
 |      |                                        |  
 |      |                                        |  
 |      |                                        |  
 |      |                                        |  
 |      |                                        |  
 |      |                                        |  
 |      .----------------------------------------.  
 |     /                                        /   
 |    /                                        /    
 |   /                                        /     
 |  /                                        /      
 | /                                        /       
 |/                                        /        
 *----------------------------------------*         

Positions:
   0 Ca     2.790000    1.972828   10.000000    ( 0.0000,  0.0000,  0.0000)
   1 Ca     8.370000    1.972828   10.000000    ( 0.0000,  0.0000,  0.0000)
   2 Ca    13.950000    1.972828   10.000000    ( 0.0000,  0.0000,  0.0000)
   3 Ca     2.790000    5.918484   10.000000    ( 0.0000,  0.0000,  0.0000)
   4 Ca     8.370000    5.918484   10.000000    ( 0.0000,  0.0000,  0.0000)
   5 Ca    13.950000    5.918484   10.000000    ( 0.0000,  0.0000,  0.0000)
   6 Ca     2.790000    9.864140   10.000000    ( 0.0000,  0.0000,  0.0000)
   7 Ca     8.370000    9.864140   10.000000    ( 0.0000,  0.0000,  0.0000)
   8 Ca    13.950000    9.864140   10.000000    ( 0.0000,  0.0000,  0.0000)
   9 Ca     0.000000    0.000000   11.972828    ( 0.0000,  0.0000,  0.0000)
  10 Ca     5.580000    0.000000   11.972828    ( 0.0000,  0.0000,  0.0000)
  11 Ca    11.160000    0.000000   11.972828    ( 0.0000,  0.0000,  0.0000)
  12 Ca     0.000000    3.945656   11.972828    ( 0.0000,  0.0000,  0.0000)
  13 Ca     5.580000    3.945656   11.972828    ( 0.0000,  0.0000,  0.0000)
  14 Ca    11.160000    3.945656   11.972828    ( 0.0000,  0.0000,  0.0000)
  15 Ca     0.000000    7.891312   11.972828    ( 0.0000,  0.0000,  0.0000)
  16 Ca     5.580000    7.891312   11.972828    ( 0.0000,  0.0000,  0.0000)
  17 Ca    11.160000    7.891312   11.972828    ( 0.0000,  0.0000,  0.0000)
  18 Ca     2.790000    1.972828   13.945656    ( 0.0000,  0.0000,  0.0000)
  19 Ca     8.370000    1.972828   13.945656    ( 0.0000,  0.0000,  0.0000)
  20 Ca    13.950000    1.972828   13.945656    ( 0.0000,  0.0000,  0.0000)
  21 Ca     2.790000    5.918484   13.945656    ( 0.0000,  0.0000,  0.0000)
  22 Ca     8.370000    5.918484   13.945656    ( 0.0000,  0.0000,  0.0000)
  23 Ca    13.950000    5.918484   13.945656    ( 0.0000,  0.0000,  0.0000)
  24 Ca     2.790000    9.864140   13.945656    ( 0.0000,  0.0000,  0.0000)
  25 Ca     8.370000    9.864140   13.945656    ( 0.0000,  0.0000,  0.0000)
  26 Ca    13.950000    9.864140   13.945656    ( 0.0000,  0.0000,  0.0000)
  27 Ca     0.000000    0.000000   15.918484    ( 0.0000,  0.0000,  0.0000)
  28 Ca     5.580000    0.000000   15.918484    ( 0.0000,  0.0000,  0.0000)
  29 Ca    11.160000    0.000000   15.918484    ( 0.0000,  0.0000,  0.0000)
  30 Ca     0.000000    3.945656   15.918484    ( 0.0000,  0.0000,  0.0000)
  31 Ca     5.580000    3.945656   15.918484    ( 0.0000,  0.0000,  0.0000)
  32 Ca    11.160000    3.945656   15.918484    ( 0.0000,  0.0000,  0.0000)
  33 Ca     0.000000    7.891312   15.918484    ( 0.0000,  0.0000,  0.0000)
  34 Ca     5.580000    7.891312   15.918484    ( 0.0000,  0.0000,  0.0000)
  35 Ca    11.160000    7.891312   15.918484    ( 0.0000,  0.0000,  0.0000)

Unit cell:
           periodic     x           y           z      points  spacing
  1. axis:    yes   16.740000    0.000000    0.000000   104     0.1610
  2. axis:    yes    0.000000   11.836968    0.000000    72     0.1644
  3. axis:    no     0.000000    0.000000   25.918484   160     0.1620

  Lengths:  16.740000  11.836968  25.918484
  Angles:   90.000000  90.000000  90.000000

Effective grid spacing dv^(1/3) = 0.1624

     iter     time        total  log10-change:
                         energy  eigst   dens
iter:   1 06:04:50 -1549.242625
iter:   2 06:16:28 -1557.895710  +0.91  -1.63
iter:   3 06:28:01 -1563.710244  +0.79  -1.66
iter:   4 06:39:23 -1568.657131  +0.66  -1.64
Writing to output.gpw (mode='')

iter:   5 06:51:03 -1572.576724  +0.56  -1.74
iter:   6 07:02:43 -1574.364995  +0.32  -2.14
iter:   7 07:13:39 -1576.873940  +0.29  -2.08
iter:   8 07:25:06 -1577.193059  +0.21  -1.89
iter:   9 07:36:39 -1578.091155  -0.06  -2.21
Writing to output.gpw (mode='')

iter:  10 07:48:12 -1578.773609  -0.11  -2.14
iter:  11 07:59:17 -1579.675655  -0.02  -2.08
iter:  12 08:10:44 -1580.738473  +0.05  -1.99
iter:  13 08:22:20 -1580.614873  -0.47  -1.87
iter:  14 08:33:39 -1581.063738  -0.49  -1.87
Writing to output.gpw (mode='')

iter:  15 08:45:29 -1580.813942  -0.65  -1.82
iter:  16 08:57:05 -1580.348025  -0.29  -1.85
iter:  17 09:08:48 -1580.389308  -0.55  -1.98
iter:  18 09:20:33 -1580.944705  -0.91  -2.06
iter:  19 09:32:07 -1582.222020  +0.47  -1.91
Writing to output.gpw (mode='')

iter:  20 09:43:42 -1582.623156  -0.22  -1.75
iter:  21 09:55:23 -1583.310783  -0.21  -1.70
iter:  22 10:07:04 -1582.386123  -0.96  -1.64
iter:  23 10:18:59 -1581.553065  -1.10  -1.66
iter:  24 10:30:02 -1581.266409  -0.96  -1.70
Writing to output.gpw (mode='')

iter:  25 10:41:56 -1581.480980  +0.51  -1.75
iter:  26 10:52:24 -1581.154567  -0.84  -2.00
iter:  27 11:03:57 -1582.063662  +0.22  -2.10
iter:  28 11:14:46 -1582.687119  -0.20  -1.90
iter:  29 11:26:07 -1581.927981  -1.30  -1.78
Writing to output.gpw (mode='')

iter:  30 11:36:36 -1581.421230  -1.22  -1.82
iter:  31 11:47:49 -1581.291384  -0.96  -1.88
iter:  32 11:58:57 -1581.330904c -1.26  -1.94
iter:  33 12:10:18 -1582.323602  -0.57  -1.97
iter:  34 12:20:59 -1581.172465  +0.11  -1.79
Writing to output.gpw (mode='')

iter:  35 12:32:32 -1581.396735  -0.49  -2.21
iter:  36 12:44:16 -1581.369520  -1.42  -2.16
iter:  37 12:54:07 -1581.434927c -1.20  -2.23
iter:  38 13:05:52 -1581.415306c -1.57  -2.28
iter:  39 13:17:23 -1581.496819c -0.82  -2.33
Writing to output.gpw (mode='')

iter:  40 13:28:59 -1581.472594c -1.28  -2.40
iter:  41 13:39:15 -1581.491234c -1.70  -2.86
iter:  42 13:50:18 -1581.502863c -1.91  -2.89
iter:  43 14:01:51 -1581.516742c -1.81  -2.88
iter:  44 14:11:41 -1581.525524c -2.00  -2.81
Writing to output.gpw (mode='')

iter:  45 14:23:14 -1581.556414c -1.54  -2.82
iter:  46 14:34:34 -1581.567331c -1.88  -2.65
iter:  47 14:45:56 -1581.568060c -1.91  -2.61
iter:  48 14:57:09 -1581.592417c -1.72  -2.69
iter:  49 15:08:08 -1581.603401c -1.92  -2.60
Writing to output.gpw (mode='')

iter:  50 15:18:42 -1581.629689c -1.69  -2.58
iter:  51 15:30:16 -1581.624039c -1.18  -2.49
iter:  52 15:40:39 -1581.639299c -1.76  -2.77
iter:  53 15:52:01 -1581.655440c -1.75  -2.70
iter:  54 16:03:38 -1581.657683c -1.93  -2.70
Writing to output.gpw (mode='')

iter:  55 16:13:00 -1581.660584c -1.96  -2.70
iter:  56 16:21:03 -1581.679410c -1.98  -2.72
iter:  57 16:32:25 -1581.676612c -1.21  -2.64
iter:  58 16:43:28 -1581.677196c -2.07  -2.79
iter:  59 16:54:55 -1581.684294c -2.00  -2.88
Writing to output.gpw (mode='')

iter:  60 17:06:37 -1581.695774c -2.02  -2.90
iter:  61 17:18:16 -1581.699914c -1.80  -2.82
iter:  62 17:28:26 -1581.707202c -2.08  -2.97
iter:  63 17:39:46 -1581.712334c -2.08  -2.97
iter:  64 17:51:00 -1581.720999c -1.92  -3.00
Writing to output.gpw (mode='')

iter:  65 18:02:35 -1581.728726c -2.01  -2.94
iter:  66 18:14:02 -1581.738356c -1.99  -2.93
iter:  67 18:24:33 -1581.742696c -2.28  -2.91
iter:  68 18:36:03 -1581.747727c -2.39  -2.97
iter:  69 18:47:40 -1581.767383c -1.79  -2.95
Writing to output.gpw (mode='')

iter:  70 18:59:02 -1581.757295c -2.13  -2.70
iter:  71 19:10:38 -1581.762188c -2.29  -2.84
iter:  72 19:22:18 -1581.767211c -2.33  -2.89
iter:  73 19:32:54 -1581.773688c -2.00  -2.92
iter:  74 19:44:41 -1581.778923c -2.31  -3.03
Writing to output.gpw (mode='')

iter:  75 19:56:11 -1581.788988c -2.03  -3.07
iter:  76 20:07:55 -1581.791645c -2.46  -3.03
iter:  77 20:19:32 -1581.795282c -2.27  -3.12
iter:  78 20:31:10 -1581.799873c -2.49  -3.24
iter:  79 20:43:04 -1581.806547c -1.99  -3.23
Writing to output.gpw (mode='')

iter:  80 20:54:40 -1581.810358c -2.37  -3.18
iter:  81 21:06:24 -1581.814938c -2.38  -3.32
iter:  82 21:17:46 -1581.819015c -2.39  -3.33
iter:  83 21:29:15 -1581.827839c -2.06  -3.29
iter:  84 21:40:32 -1581.830185c -2.57  -3.12
Writing to output.gpw (mode='')

iter:  85 21:52:01 -1581.836113c -2.38  -3.15
iter:  86 22:03:25 -1581.839817c -2.51  -3.04
iter:  87 22:14:54 -1581.843914c -2.47  -3.02
iter:  88 22:26:27 -1581.845850c -2.38  -3.00
iter:  89 22:37:48 -1581.849301c -2.48  -3.07
Writing to output.gpw (mode='')

iter:  90 22:49:32 -1581.854090c -2.48  -3.09
iter:  91 23:01:00 -1581.858484c -2.17  -2.99
iter:  92 23:12:33 -1581.862311c -2.50  -3.25
iter:  93 23:23:29 -1581.865396c -2.39  -3.23
iter:  94 23:35:03 -1581.870477c -2.12  -3.42
Writing to output.gpw (mode='')

iter:  95 23:45:30 -1581.873402c -2.60  -3.45
iter:  96 23:56:32 -1581.876671c -2.52  -3.48
iter:  97 00:07:28 -1581.880333c -2.48  -3.47
iter:  98 00:19:03 -1581.884477c -2.34  -3.44
iter:  99 00:30:37 -1581.888271c -2.42  -3.35
Writing to output.gpw (mode='')

iter: 100 00:42:08 -1581.891352c -2.55  -3.34
iter: 101 00:53:51 -1581.894608c -2.54  -3.36
iter: 102 01:05:34 -1581.898317c -2.39  -3.30
iter: 103 01:17:06 -1581.900967c -2.55  -3.22
iter: 104 01:27:52 -1581.905526c -2.36  -3.21
Writing to output.gpw (mode='')

iter: 105 01:39:33 -1581.908338c -2.42  -3.07
iter: 106 01:50:56 -1581.910718c -2.63  -3.34
iter: 107 02:02:15 -1581.913547c -2.52  -3.34
iter: 108 02:13:47 -1581.916406c -2.61  -3.41
iter: 109 02:25:25 -1581.919869c -2.37  -3.39
Writing to output.gpw (mode='')

iter: 110 02:37:06 -1581.922643c -2.64  -3.35
iter: 111 02:48:50 -1581.925417c -2.60  -3.34
iter: 112 03:00:27 -1581.929578c -2.35  -3.27
iter: 113 03:11:43 -1581.931101c -2.43  -3.17
iter: 114 03:23:35 -1581.934763c -2.14  -3.28
Writing to output.gpw (mode='')

iter: 115 03:35:20 -1581.937254c -2.59  -3.52
iter: 116 03:46:38 -1581.939011c -2.68  -3.51
iter: 117 03:58:01 -1581.942905c -2.30  -3.63
iter: 118 04:08:51 -1581.944381c -2.81  -3.41
iter: 119 04:18:10 -1581.946110c -2.92  -3.45
Writing to output.gpw (mode='')

iter: 120 04:25:26 -1581.947706c -2.79  -3.42
iter: 121 04:34:51 -1581.949658c -2.67  -3.53
iter: 122 04:46:00 -1581.951942c -2.80  -3.63
iter: 123 04:56:39 -1581.953865c -2.59  -3.58
iter: 124 05:04:48 -1581.957040c -2.35  -3.70
Writing to output.gpw (mode='')

iter: 125 05:13:02 -1581.959922c -2.44  -3.62
iter: 126 05:24:38 -1581.961115c -2.79  -3.45
iter: 127 05:36:00 -1581.964664c -2.47  -3.52
iter: 128 05:47:24 -1581.966056c -2.83  -3.26
iter: 129 05:58:42 -1581.967158c -2.89  -3.24
Writing to output.gpw (mode='')

iter: 130 06:09:58 -1581.968357c -2.49  -3.26
iter: 131 06:21:29 -1581.969954c -2.91  -3.65
iter: 132 06:33:05 -1581.971286c -2.99  -3.72
iter: 133 06:44:36 -1581.973097c -2.81  -3.76
iter: 134 06:50:46 -1581.974414c -2.94  -4.02c
Writing to output.gpw (mode='')

iter: 135 06:56:26 -1581.975717c -2.97  -4.07c
iter: 136 07:02:05 -1581.977168c -2.89  -4.00
iter: 137 07:08:58 -1581.978600c -2.93  -3.92
iter: 138 07:16:56 -1581.979844c -2.98  -3.87
iter: 139 07:28:15 -1581.981154c -2.94  -3.80
Writing to output.gpw (mode='')

iter: 140 07:38:55 -1581.982435c -2.92  -3.80
iter: 141 07:50:19 -1581.983692c -2.91  -3.80
iter: 142 08:02:05 -1581.985331c -2.74  -3.74
iter: 143 08:13:41 -1581.986957c -2.75  -3.64
iter: 144 08:24:59 -1581.987882c -3.02  -3.54
Writing to output.gpw (mode='')

iter: 145 08:36:30 -1581.988885c -3.01  -3.57
iter: 146 08:48:23 -1581.990242c -2.80  -3.57
iter: 147 08:58:50 -1581.991804c -2.90  -3.70
iter: 148 09:09:30 -1581.993026c -3.00  -3.54
iter: 149 09:20:40 -1581.993413c -3.03  -3.43
Writing to output.gpw (mode='')

iter: 150 09:31:01 -1581.994355c -3.08  -3.56
iter: 151 09:42:28 -1581.995254c -2.85  -3.58
iter: 152 09:54:01 -1581.996468c -2.83  -3.71
iter: 153 10:05:31 -1581.997892c -2.73  -3.64
iter: 154 10:17:10 -1581.998513c -3.02  -3.58
Writing to output.gpw (mode='')

iter: 155 10:29:00 -1581.999445c -3.15  -3.68
iter: 156 10:40:39 -1582.000830c -2.83  -3.58
iter: 157 10:51:13 -1582.001007c -2.90  -3.43
iter: 158 11:02:40 -1582.002021c -3.11  -3.74
iter: 159 11:14:04 -1582.002779c -2.98  -3.72
Writing to output.gpw (mode='')

iter: 160 11:25:38 -1582.003484c -3.00  -3.79
iter: 161 11:37:14 -1582.004406c -2.94  -3.83
iter: 162 11:48:59 -1582.006806c -2.57  -3.74
iter: 163 12:00:39 -1582.006070c -3.14  -3.25
iter: 164 12:11:52 -1582.006452c -2.67  -3.37
Writing to output.gpw (mode='')

iter: 165 12:22:29 -1582.007296c -3.32  -3.58
iter: 166 12:33:55 -1582.008985c -2.87  -3.54
iter: 167 12:45:19 -1582.008245c -3.18  -3.30
iter: 168 12:57:00 -1582.013283c -2.20  -3.41
iter: 169 13:07:09 -1582.013008c -3.07  -3.04
Writing to output.gpw (mode='')

iter: 170 13:18:45 -1582.009245c -2.65  -3.04
iter: 171 13:30:10 -1582.009910c -2.78  -3.30
iter: 172 13:41:41 -1582.010983c -2.63  -3.46
iter: 173 13:53:09 -1582.011586c -3.19  -3.74
iter: 174 14:04:32 -1582.012136c -3.19  -3.83
Writing to output.gpw (mode='')

iter: 175 14:14:32 -1582.012691c -3.26  -3.89
iter: 176 14:25:54 -1582.013306c -3.17  -4.07c
iter: 177 14:37:14 -1582.013723c -3.44  -4.06c
iter: 178 14:47:42 -1582.014078c -3.48  -3.95
iter: 179 14:59:12 -1582.014506c -3.44  -3.96
Writing to output.gpw (mode='')

iter: 180 15:09:35 -1582.015017c -3.37  -3.89
iter: 181 15:19:53 -1582.015432c -3.41  -3.81
iter: 182 15:28:33 -1582.015850c -3.38  -3.84
iter: 183 15:39:56 -1582.016227c -3.34  -3.85
iter: 184 15:51:17 -1582.016700c -3.45  -3.85
Writing to output.gpw (mode='')

iter: 185 16:00:00 -1582.017156c -3.08  -3.78
iter: 186 16:08:19 -1582.017594c -3.31  -3.79
iter: 187 16:19:35 -1582.018486c -3.11  -3.72
iter: 188 16:30:48 -1582.018475c -3.25  -3.48
iter: 189 16:42:02 -1582.018485c -3.21  -3.55
Writing to output.gpw (mode='')

iter: 190 16:52:23 -1582.018860c -3.59  -3.77
iter: 191 17:03:41 -1582.020246c -2.70  -3.74
iter: 192 17:15:05 -1582.020954c -3.12  -3.35
iter: 193 17:26:32 -1582.020980c -3.41  -3.28
iter: 194 17:37:46 -1582.020927c -3.56  -3.27
Writing to output.gpw (mode='')

iter: 195 17:48:19 -1582.020046c -2.86  -3.28
iter: 196 17:56:29 -1582.021161c -2.65  -3.75
iter: 197 18:07:54 -1582.020998c -3.58  -3.60
iter: 198 18:19:04 -1582.021088c -3.62  -3.69
iter: 199 18:30:29 -1582.021304c -3.41  -3.76
Writing to output.gpw (mode='')

iter: 200 18:42:12 -1582.022033c -3.30  -3.83
iter: 201 18:53:26 -1582.022517c -3.30  -3.54
iter: 202 19:05:02 -1582.022096c -3.35  -3.44
iter: 203 19:14:53 -1582.022295c -3.07  -3.56
iter: 204 19:24:34 -1582.022480c -3.83  -3.76
Writing to output.gpw (mode='')

iter: 205 19:36:05 -1582.022670c -3.47  -3.74
iter: 206 19:47:37 -1582.022874c -3.73  -3.85
iter: 207 19:56:20 -1582.023227c -3.27  -3.84
iter: 208 20:06:55 -1582.023395c -3.76  -3.78
iter: 209 20:17:51 -1582.023526c -3.74  -3.74
Writing to output.gpw (mode='')

iter: 210 20:28:43 -1582.023698c -3.76  -3.76
iter: 211 20:36:17 -1582.023969c -3.74  -3.75
iter: 212 20:47:48 -1582.024483c -3.31  -3.67
iter: 213 20:56:39 -1582.024255c -3.69  -3.48
iter: 214 21:05:07 -1582.024698c -3.72  -3.58
Writing to output.gpw (mode='')

iter: 215 21:13:03 -1582.024772c -3.80  -3.50
iter: 216 21:24:37 -1582.026548c -3.02  -3.50
iter: 217 21:31:55 -1582.027521c -3.34  -3.17
iter: 218 21:38:39 -1582.025916c -2.23  -3.11
iter: 219 21:50:15 -1582.025090c -3.34  -3.38
Writing to output.gpw (mode='')

iter: 220 22:00:41 -1582.025079c -3.44  -3.58
iter: 221 22:11:57 -1582.025359c -3.18  -3.78
iter: 222 22:23:29 -1582.027326c -2.65  -3.89
iter: 223 22:30:31 -1582.027573c -3.38  -3.28
iter: 224 22:41:25 -1582.025878c -3.58  -3.24
Writing to output.gpw (mode='')

iter: 225 22:53:06 -1582.028510c -3.06  -3.37
iter: 226 23:03:07 -1582.027218c -3.86  -3.17
iter: 227 23:13:21 -1582.025661c -2.82  -3.21
iter: 228 23:25:10 -1582.025916c -3.42  -3.75
iter: 229 23:35:15 -1582.026160c -3.32  -3.84
Writing to output.gpw (mode='')

iter: 230 23:44:50 -1582.026570c -3.13  -3.95
iter: 231 23:56:32 -1582.026522c -3.86  -3.80
iter: 232 00:04:39 -1582.026501c -3.93  -3.87
iter: 233 00:16:30 -1582.026612c -4.16  -3.95
iter: 234 00:27:51 -1582.026802c -3.29  -3.93
Writing to output.gpw (mode='')

iter: 235 00:39:42 -1582.026902c -3.42  -3.92
iter: 236 00:51:35 -1582.026946c -4.02  -4.07c
iter: 237 01:03:22 -1582.027084c -3.80  -4.07c
iter: 238 01:14:40 -1582.027150c -3.98  -3.93
iter: 239 01:23:14 -1582.027441c -3.52  -3.89
Writing to output.gpw (mode='')

iter: 240 01:28:56 -1582.027533c -3.84  -3.70
iter: 241 01:36:43 -1582.027282c -3.66  -3.64
iter: 242 01:46:56 -1582.027545c -4.10  -3.78
iter: 243 01:57:39 -1582.027481c -3.23  -3.70
iter: 244 02:06:50 -1582.027614c -3.78  -4.12c
Writing to output.gpw (mode='')

iter: 245 02:18:19 -1582.027682c -3.94  -4.07c
iter: 246 02:29:43 -1582.027873c -3.63  -4.14c
iter: 247 02:40:15 -1582.027820c -4.06  -3.94
iter: 248 02:51:41 -1582.027886c -4.26  -4.01c
iter: 249 03:02:59 -1582.027939c -3.71  -3.99
Writing to output.gpw (mode='')

iter: 250 03:14:20 -1582.028001c -4.28  -4.07c
iter: 251 03:25:50 -1582.028316c -3.40  -4.08c
iter: 252 03:37:36 -1582.028496c -3.78  -3.75
iter: 253 03:48:57 -1582.028817c -3.49  -3.68
iter: 254 04:00:11 -1582.028704c -4.02  -3.56
Writing to output.gpw (mode='')

iter: 255 04:11:17 -1582.028271c -3.04  -3.55
iter: 256 04:22:15 -1582.028424c -3.96  -4.04c
iter: 257 04:33:45 -1582.028574c -3.97  -4.12c
iter: 258 04:44:11 -1582.028565c -3.58  -4.02c
iter: 259 04:55:54 -1582.028884c -3.10  -4.33c
Writing to output.gpw (mode='')

iter: 260 05:07:41 -1582.028774c -3.95  -3.97
iter: 261 05:19:20 -1582.028807c -4.15  -4.12c
iter: 262 05:31:14 -1582.028856c -4.14  -4.17c
iter: 263 05:43:07 -1582.028904c -4.37  -4.20c
iter: 264 05:54:45 -1582.028973c -3.71  -4.20c
Writing to output.gpw (mode='')

iter: 265 06:06:43 -1582.029040c -4.05  -4.32c
iter: 266 06:18:24 -1582.029131c -3.73  -4.40c
iter: 267 06:29:59 -1582.029172c -4.01  -4.21c
iter: 268 06:41:15 -1582.029233c -3.78  -4.26c
iter: 269 06:52:37 -1582.029278c -4.21  -4.42c
Writing to output.gpw (mode='')

iter: 270 07:04:11 -1582.029340c -4.01  -4.44c
iter: 271 07:15:43 -1582.029384c -4.15  -4.42c
iter: 272 07:27:42 -1582.029705c -3.27  -4.47c
iter: 273 07:39:19 -1582.029758c -4.18  -3.90
iter: 274 07:50:59 -1582.029834c -4.17  -3.88
Writing to output.gpw (mode='')

iter: 275 08:02:53 -1582.029799c -3.87  -3.83
iter: 276 08:14:28 -1582.029826c -3.97  -3.87
iter: 277 08:25:50 -1582.030101c -3.15  -3.89
iter: 278 08:37:25 -1582.030089c -4.06  -4.00c
iter: 279 08:48:54 -1582.030139c -4.19  -4.10c
Writing to output.gpw (mode='')

iter: 280 09:00:36 -1582.030198c -4.18  -4.13c
iter: 281 09:12:10 -1582.030261c -4.09  -4.12c
iter: 282 09:23:25 -1582.030769c -3.02  -4.12c
iter: 283 09:34:50 -1582.030542c -3.71  -3.73
iter: 284 09:46:28 -1582.030620c -4.22  -3.93
Writing to output.gpw (mode='')

iter: 285 09:58:00 -1582.030701c -4.29  -3.95
iter: 286 10:09:36 -1582.030729c -3.93  -3.96
iter: 287 10:21:16 -1582.031374c -2.76  -4.04c
iter: 288 10:33:01 -1582.031150c -3.79  -3.71
iter: 289 10:44:41 -1582.031163c -4.03  -3.77
Writing to output.gpw (mode='')

iter: 290 10:56:15 -1582.031196c -3.44  -3.80
iter: 291 11:07:54 -1582.031292c -3.62  -3.98
iter: 292 11:19:27 -1582.031452c -3.43  -4.08c
iter: 293 11:31:08 -1582.031534c -3.62  -4.14c
iter: 294 11:42:52 -1582.031600c -4.00  -4.23c
Writing to output.gpw (mode='')

iter: 295 11:54:22 -1582.031736c -3.66  -4.24c
iter: 296 12:05:47 -1582.031775c -3.90  -4.11c
iter: 297 12:17:22 -1582.031916c -3.58  -4.12c
iter: 298 12:28:44 -1582.031972c -3.78  -4.04c
iter: 299 12:40:42 -1582.032435c -2.92  -4.07c
Writing to output.gpw (mode='')

iter: 300 12:52:10 -1582.032600c -3.70  -4.27c
iter: 301 13:03:49 -1582.032677c -4.08  -4.29c
iter: 302 13:15:24 -1582.032820c -3.59  -4.30c
iter: 303 13:27:09 -1582.033028c -3.28  -4.34c
iter: 304 13:38:40 -1582.033176c -3.60  -4.46c
Writing to output.gpw (mode='')

iter: 305 13:50:13 -1582.033261c -3.94  -4.51c
iter: 306 14:01:57 -1582.033681c -3.00  -4.52c
iter: 307 14:13:41 -1582.033806c -3.82  -4.41c
iter: 308 14:25:20 -1582.033987c -3.37  -4.39c
iter: 309 14:36:53 -1582.034122c -3.59  -4.44c
Writing to output.gpw (mode='')

iter: 310 14:48:29 -1582.034216c -3.90  -4.45c
iter: 311 15:00:01 -1582.034852c -3.02  -4.47c
iter: 312 15:11:33 -1582.035006c -3.82  -4.09c
iter: 313 15:23:07 -1582.035332c -3.14  -4.05c
iter: 314 15:35:04 -1582.035518c -3.56  -4.18c
Writing to output.gpw (mode='')

iter: 315 15:46:44 -1582.035658c -3.79  -4.29c
iter: 316 15:58:26 -1582.035851c -3.62  -4.35c
iter: 317 16:10:11 -1582.036122c -3.23  -4.48c
iter: 318 16:21:39 -1582.036501c -3.09  -4.60c
iter: 319 16:33:19 -1582.036646c -3.75  -4.26c
Writing to output.gpw (mode='')

iter: 320 16:45:02 -1582.036756c -3.87  -4.17c
iter: 321 16:56:19 -1582.036962c -3.38  -4.13c
iter: 322 17:07:43 -1582.037131c -3.47  -4.11c
iter: 323 17:19:18 -1582.037277c -3.70  -4.09c
iter: 324 17:30:49 -1582.038190c -2.91  -4.06c
Writing to output.gpw (mode='')

iter: 325 17:42:30 -1582.038498c -3.26  -3.79
iter: 326 17:53:58 -1582.038874c -3.04  -3.78
iter: 327 18:05:46 -1582.039239c -3.46  -3.90
iter: 328 18:17:17 -1582.039412c -3.78  -4.00
iter: 329 18:28:54 -1582.039741c -3.33  -4.03c
Writing to output.gpw (mode='')

iter: 330 18:40:32 -1582.040198c -2.99  -3.96
iter: 331 18:52:08 -1582.040391c -3.83  -4.14c
iter: 332 19:03:49 -1582.041380c -2.71  -4.12c
iter: 333 19:15:28 -1582.041492c -3.58  -3.69
iter: 334 19:27:00 -1582.042248c -3.01  -3.67
Writing to output.gpw (mode='')

iter: 335 19:38:25 -1582.042621c -3.26  -3.53
iter: 336 19:50:02 -1582.042699c -3.59  -3.47
iter: 337 20:01:46 -1582.042752c -2.92  -3.44
iter: 338 20:13:04 -1582.043083c -2.89  -3.48
iter: 339 20:24:33 -1582.043726c -3.50  -3.57
Writing to output.gpw (mode='')

iter: 340 20:36:03 -1582.045430c -2.51  -3.54
iter: 341 20:47:31 -1582.051138c -2.17  -3.37
iter: 342 20:59:25 -1582.044017c -2.63  -3.12
iter: 343 21:11:15 -1582.044390c -2.72  -3.36
iter: 344 21:22:55 -1582.045261c -3.05  -3.53
Writing to output.gpw (mode='')

iter: 345 21:34:43 -1582.046066c -2.63  -3.64
iter: 346 21:46:09 -1582.047418c -2.54  -4.01c
iter: 347 21:57:38 -1582.048822c -2.59  -3.75
iter: 348 22:09:11 -1582.049495c -2.82  -3.45
iter: 349 22:20:52 -1582.049767c -3.07  -3.34
Writing to output.gpw (mode='')

iter: 350 22:32:46 -1582.049777c -3.30  -3.27
iter: 351 22:44:17 -1582.049919c -3.35  -3.24
iter: 352 22:55:36 -1582.049897c -3.15  -3.21
iter: 353 23:07:01 -1582.054648c -2.49  -3.20
iter: 354 23:18:29 -1582.049151c -2.89  -3.02
Writing to output.gpw (mode='')

iter: 355 23:29:42 -1582.047790c -2.52  -3.09
iter: 356 23:41:22 -1582.049274c -3.19  -3.22
iter: 357 23:52:57 -1582.049586c -2.71  -3.25
iter: 358 00:04:21 -1582.049988c -2.62  -3.40
iter: 359 00:16:03 -1582.053571c -2.00  -3.60
Writing to output.gpw (mode='')

iter: 360 00:27:37 -1582.052793c -3.08  -3.50
iter: 361 00:39:14 -1582.052703c -3.10  -3.53
iter: 362 00:50:32 -1582.053303c -3.40  -3.58
iter: 363 01:02:13 -1582.054031c -2.96  -3.54
iter: 364 01:13:49 -1582.053930c -2.71  -3.47
Writing to output.gpw (mode='')

iter: 365 01:25:23 -1582.055324c -2.42  -3.62
iter: 366 01:36:57 -1582.056016c -3.05  -3.71
iter: 367 01:48:44 -1582.055630c -3.12  -3.60
iter: 368 02:00:39 -1582.056014c -2.90  -3.70
iter: 369 02:12:26 -1582.056607c -3.33  -3.80
Writing to output.gpw (mode='')

iter: 370 02:24:17 -1582.057026c -2.75  -3.72
iter: 371 02:35:51 -1582.058342c -2.51  -3.76
iter: 372 02:47:30 -1582.058956c -3.05  -3.70
iter: 373 02:59:05 -1582.060216c -2.71  -3.59
iter: 374 03:10:26 -1582.059325c -2.75  -3.42
Writing to output.gpw (mode='')

iter: 375 03:21:55 -1582.060117c -3.33  -3.53
iter: 376 03:33:22 -1582.060314c -3.43  -3.51
iter: 377 03:44:47 -1582.062750c -2.47  -3.51
iter: 378 03:56:30 -1582.061765c -2.59  -3.29
iter: 379 04:08:13 -1582.062598c -3.38  -3.42
Writing to output.gpw (mode='')

iter: 380 04:20:07 -1582.062748c -3.20  -3.42
iter: 381 04:31:33 -1582.067775c -1.87  -3.45
iter: 382 04:43:12 -1582.068839c -2.84  -3.47
iter: 383 04:54:59 -1582.070938c -2.14  -3.47
iter: 384 05:05:12 -1582.072460c -2.81  -3.58
Writing to output.gpw (mode='')

iter: 385 05:17:09 -1582.088178c -1.43  -3.52
iter: 386 05:29:03 -1582.093736c -2.33  -3.17
iter: 387 05:40:53 -1582.096456c -2.47  -3.09
iter: 388 05:52:18 -1582.107203c -1.81  -3.03
iter: 389 06:03:54 -1582.102407c -2.30  -2.90
Writing to output.gpw (mode='')

iter: 390 06:15:29 -1582.121962c -1.62  -2.90
iter: 391 06:27:06 -1582.117937c -2.29  -2.76
iter: 392 06:38:41 -1582.120807c -2.23  -2.75
iter: 393 06:50:20 -1582.121441c -1.80  -2.73
iter: 394 07:01:56 -1582.122724c -2.34  -2.74
Writing to output.gpw (mode='')

iter: 395 07:13:42 -1582.277953c -0.87  -2.75
iter: 396 07:25:28 -1582.118025c -1.39  -2.28
iter: 397 07:37:08 -1582.138139c -1.95  -2.37
iter: 398 07:48:42 -1582.139594c -1.94  -2.40
iter: 399 08:00:33 -1582.145133c -1.90  -2.43
Writing to output.gpw (mode='')

iter: 400 08:12:27 -1582.130838c -1.16  -2.47
iter: 401 08:24:04 -1582.152608c -1.73  -2.67
iter: 402 08:35:36 -1582.187300c -2.19  -2.74
iter: 403 08:47:21 -1582.193966c -0.96  -2.71
iter: 404 08:59:10 -1582.237062c -1.12  -2.96
Writing to output.gpw (mode='')

iter: 405 09:10:45 -1582.195661c -1.96  -2.79
iter: 406 09:22:11 -1582.220936c -1.01  -2.97
iter: 407 09:34:00 -1582.220061c -1.98  -3.06
iter: 408 09:45:33 -1582.208581c -2.26  -3.01
iter: 409 09:57:13 -1582.210958c -2.46  -3.17
Writing to output.gpw (mode='')

iter: 410 10:08:55 -1582.213538c -2.56  -3.21
iter: 411 10:20:40 -1582.217638c -2.51  -3.23
iter: 412 10:32:27 -1582.219316c -2.65  -3.22
iter: 413 10:44:11 -1582.232092c -1.52  -3.20
iter: 414 10:55:50 -1582.234004c -2.43  -3.01
Writing to output.gpw (mode='')

iter: 415 11:07:43 -1582.229164c -2.49  -2.97
iter: 416 11:19:46 -1582.230013c -2.66  -3.01
iter: 417 11:31:30 -1582.236281c -2.63  -3.02
iter: 418 11:43:45 -1582.248142c -1.93  -2.98
iter: 419 11:55:27 -1582.254350c -1.17  -2.83
Writing to output.gpw (mode='')

iter: 420 12:07:08 -1582.249140c -2.38  -2.95
iter: 421 12:18:56 -1582.236235c -1.78  -2.94
iter: 422 12:30:40 -1582.245239c -1.68  -3.26
iter: 423 12:42:33 -1582.246717c -2.42  -3.27
iter: 424 12:54:19 -1582.244296c -2.91  -3.23
Writing to output.gpw (mode='')

iter: 425 13:06:01 -1582.244810c -2.90  -3.31
iter: 426 13:17:54 -1582.245927c -2.61  -3.34
iter: 427 13:29:51 -1582.262618c -1.50  -3.42
iter: 428 13:41:30 -1582.248589c -2.77  -2.88
iter: 429 13:53:13 -1582.277918c -1.65  -2.95
Writing to output.gpw (mode='')

iter: 430 14:05:19 -1582.294959c -1.85  -2.71
iter: 431 14:17:07 -1582.284389c -2.57  -2.62
iter: 432 14:28:56 -1582.251827c -2.65  -2.60
iter: 433 14:40:47 -1582.243534c -2.24  -2.66
iter: 434 14:52:22 -1582.257315c -3.15  -2.72
Writing to output.gpw (mode='')

iter: 435 15:04:12 -1582.305133c -1.56  -2.72
iter: 436 15:15:56 -1582.283550c -2.81  -2.52
iter: 437 15:27:34 -1582.334877c -1.51  -2.52
iter: 438 15:39:18 -1582.297689c -2.86  -2.40
iter: 439 15:50:49 -1582.247968c -1.84  -2.41
Writing to output.gpw (mode='')

iter: 440 16:02:35 -1582.242287c -2.27  -2.51
iter: 441 16:14:09 -1582.250074c -2.71  -2.55
iter: 442 16:25:42 -1582.336928c -0.44  -2.57
iter: 443 16:37:18 -1582.246032c -1.87  -2.56
iter: 444 16:49:02 -1582.240486c -1.03  -2.70
Writing to output.gpw (mode='')

iter: 445 17:00:40 -1582.254859c -1.64  -3.24
iter: 446 17:12:23 -1582.259502c -2.19  -3.38
iter: 447 17:24:21 -1582.262373c -2.39  -3.34
iter: 448 17:36:07 -1582.266815c -2.17  -3.27
iter: 449 17:47:55 -1582.319375c -1.10  -3.11
Writing to output.gpw (mode='')

iter: 450 17:59:33 -1582.274496c -2.83  -2.65
iter: 451 18:10:59 -1582.272992c -3.17  -2.69
iter: 452 18:22:45 -1582.271835c -3.22  -2.69
iter: 453 18:34:25 -1582.279643c -2.87  -2.69
iter: 454 18:46:09 -1582.912724  -0.35  -2.67
Writing to output.gpw (mode='')

iter: 455 18:57:40 -1582.023182  -0.83  -1.94
iter: 456 19:09:04 -1582.003305  -0.93  -2.05
iter: 457 19:20:35 -1582.053609c -1.10  -2.10
iter: 458 19:32:22 -1582.083172c -1.15  -2.15
iter: 459 19:43:45 -1582.078008c -0.23  -2.21
Writing to output.gpw (mode='')

iter: 460 19:55:30 -1582.189714c -0.79  -2.63
iter: 461 20:07:06 -1582.242292c -2.29  -2.90
iter: 462 20:18:55 -1582.259432c -2.54  -2.85
iter: 463 20:30:48 -1582.247786c -2.26  -2.83
iter: 464 20:42:17 -1582.319556c -0.64  -2.93
Writing to output.gpw (mode='')

iter: 465 20:53:57 -1582.354340c -1.23  -2.72
iter: 466 21:05:28 -1582.362247c -1.57  -2.57
iter: 467 21:17:04 -1582.320619c -2.38  -2.50
iter: 468 21:28:44 -1582.355932c -1.92  -2.49
iter: 469 21:40:26 -1582.343860c -2.30  -2.43
Writing to output.gpw (mode='')

iter: 470 21:52:00 -1582.353343c -2.30  -2.41
iter: 471 22:03:48 -1582.247469c -1.81  -2.39
iter: 472 22:15:27 -1582.219401c -1.09  -2.53
iter: 473 22:27:10 -1582.240703c -1.31  -2.79
iter: 474 22:38:59 -1582.277066c -1.01  -3.03
Writing to output.gpw (mode='')

iter: 475 22:50:45 -1582.277744c -1.91  -3.13
iter: 476 23:02:33 -1582.269079c -2.63  -3.09
iter: 477 23:14:09 -1582.269818c -3.10  -3.24
iter: 478 23:25:48 -1582.268664c -2.73  -3.25
iter: 479 23:37:14 -1582.292755c -1.23  -3.36
Writing to output.gpw (mode='')

iter: 480 23:48:55 -1582.285264c -2.55  -2.86
iter: 481 00:00:27 -1582.283758c -2.87  -2.83
iter: 482 00:12:03 -1582.282778c -3.10  -2.81
iter: 483 00:23:45 -1582.286923c -2.88  -2.79
iter: 484 00:35:10 -1582.300952c -2.06  -2.76
Writing to output.gpw (mode='')

iter: 485 00:46:51 -1582.261914c -1.51  -2.67
iter: 486 00:58:24 -1582.267711c -2.18  -3.06
iter: 487 01:10:23 -1582.273452c -3.02  -3.17
iter: 488 01:22:06 -1582.328112c -1.20  -3.18
iter: 489 01:34:03 -1582.272570c -0.97  -2.65
Writing to output.gpw (mode='')

iter: 490 01:45:39 -1582.286304c -1.71  -3.32
iter: 491 01:57:34 -1582.280519c -2.38  -3.19
iter: 492 02:09:19 -1582.284389c -2.45  -3.36
iter: 493 02:21:10 -1582.339854c -1.03  -3.26
iter: 494 02:32:54 -1582.355230c -1.42  -2.69
Writing to output.gpw (mode='')

iter: 495 02:44:40 -1582.269882c -2.25  -2.58
iter: 496 02:56:14 -1582.341359c -1.80  -2.71
iter: 497 03:07:56 -1582.266027c -2.11  -2.58
iter: 498 03:19:45 -1582.320880c -0.53  -2.70
iter: 499 03:31:18 -1582.302659c -1.99  -2.91
Writing to output.gpw (mode='')

iter: 500 03:43:01 -1582.300688c -2.35  -2.90
iter: 501 03:54:31 -1582.301983c -2.41  -2.87
iter: 502 04:06:01 -1582.307764c -2.43  -2.83
iter: 503 04:17:46 -1582.496219  -0.61  -2.78
iter: 504 04:29:23 -1582.277595  -1.71  -2.27
Writing to output.gpw (mode='')

iter: 505 04:41:21 -1582.223270  -1.11  -2.38
iter: 506 04:53:04 -1582.245053c -1.39  -2.53
iter: 507 05:04:48 -1582.264475c -1.68  -2.63
iter: 508 05:16:21 -1582.326704c -0.56  -2.71
iter: 509 05:28:09 -1582.351766c -1.13  -3.02
Writing to output.gpw (mode='')

iter: 510 05:39:53 -1582.315552c -2.34  -2.75
iter: 511 05:51:36 -1582.317903c -2.52  -2.82
iter: 512 06:03:13 -1582.341127c -1.90  -2.81
iter: 513 06:14:41 -1582.358991c -1.71  -2.70
iter: 514 06:26:17 -1582.359792c -1.99  -2.61
Writing to output.gpw (mode='')

iter: 515 06:38:06 -1582.310029c -1.68  -2.57
iter: 516 06:50:01 -1582.341343c -2.41  -2.68
iter: 517 07:01:49 -1582.368736c -1.89  -2.64
iter: 518 07:13:50 -1582.328141c -2.09  -2.56
iter: 519 07:25:38 -1582.507559c -0.35  -2.62
Writing to output.gpw (mode='')

iter: 520 07:37:19 -1582.382575c -1.72  -2.31
iter: 521 07:48:49 -1582.281203  -0.99  -2.34
iter: 522 08:00:44 -1582.312434c -1.57  -2.57
iter: 523 08:12:27 -1582.326889c -1.96  -2.65
iter: 524 08:24:05 -1582.417720c -0.42  -2.70
Writing to output.gpw (mode='')

iter: 525 08:35:49 -1582.386776c -1.83  -2.78
iter: 526 08:47:32 -1582.491364c -0.48  -2.76
iter: 527 08:59:13 -1582.383428c -1.84  -2.54
iter: 528 09:10:49 -1582.372084c -2.06  -2.62
iter: 529 09:22:31 -1582.384879c -2.53  -2.67
Writing to output.gpw (mode='')

iter: 530 09:34:25 -1582.365499c -1.66  -2.67
iter: 531 09:46:03 -1582.801828  -0.16  -2.85
iter: 532 09:57:39 -1582.594772  -1.57  -2.07
iter: 533 10:09:18 -1582.347021  -1.27  -2.08
iter: 534 10:20:51 -1582.449512  -2.02  -2.15
Writing to output.gpw (mode='')

iter: 535 10:32:48 -1582.491640c -2.22  -2.15
iter: 536 10:44:20 -1585.578096  +0.49  -2.15
iter: 537 10:56:12 -1582.061511  -0.36  -1.62
iter: 538 11:08:02 -1580.721266  +0.26  -1.69
iter: 539 11:19:40 -1581.304849  -0.15  -1.85
Writing to output.gpw (mode='')

iter: 540 11:31:30 -1581.670303  -0.45  -1.93
iter: 541 11:43:26 -1582.425677  -1.85  -1.99
iter: 542 11:55:18 -1581.902936  -0.06  -1.98
iter: 543 12:06:46 -1582.363107  +0.26  -2.24
iter: 544 12:18:24 -1582.396785  -1.19  -2.89
Writing to output.gpw (mode='')

iter: 545 12:30:06 -1582.839823  -0.25  -2.90
iter: 546 12:41:48 -1582.651562  -1.41  -2.27
iter: 547 12:53:35 -1582.310023  -1.31  -2.25
iter: 548 13:04:56 -1582.324618  -1.37  -2.43
iter: 549 13:16:35 -1582.394709c -0.42  -2.53
Writing to output.gpw (mode='')

iter: 550 13:28:20 -1582.497345c -0.68  -3.17
iter: 551 13:39:59 -1582.829864  -0.19  -2.83
iter: 552 13:51:27 -1582.699527  -1.15  -2.30
iter: 553 14:03:09 -1583.122458  -0.36  -2.25
iter: 554 14:14:47 -1583.207792  -0.69  -2.07
Writing to output.gpw (mode='')

iter: 555 14:26:18 -1583.442215  -0.55  -2.01
iter: 556 14:38:03 -1584.427559  +0.06  -1.93
iter: 557 14:49:33 -1582.951451  -1.52  -1.77
iter: 558 15:01:14 -1584.602987  -0.18  -1.80
iter: 559 15:12:36 -1583.992615  -1.05  -1.70
Writing to output.gpw (mode='')

iter: 560 15:24:05 -1582.307556  -0.67  -1.69
iter: 561 15:35:34 -1583.299603  +0.85  -1.77
iter: 562 15:47:12 -1584.462874  +0.07  -2.12
iter: 563 15:58:49 -1583.541338  -0.76  -1.94
iter: 564 16:10:28 -1582.104873  +0.42  -1.92
Writing to output.gpw (mode='')

iter: 565 16:21:59 -1584.454972  +0.68  -2.69
iter: 566 16:33:21 -1584.668732  +0.10  -2.05
iter: 567 16:44:55 -1582.797929  -1.82  -1.92
iter: 568 16:56:17 -1582.176360  +0.27  -1.99
iter: 569 17:07:57 -1582.414174  -0.48  -2.75
Writing to output.gpw (mode='')

iter: 570 17:19:17 -1582.462422  -1.82  -2.95
iter: 571 17:30:49 -1583.060974  -0.05  -2.87
iter: 572 17:42:17 -1582.961083  -0.89  -2.12
iter: 573 17:53:47 -1583.295002  -0.53  -2.08
iter: 574 18:05:13 -1582.492646  -1.87  -1.99
Writing to output.gpw (mode='')

iter: 575 18:16:39 -1583.666538  +0.65  -2.05
iter: 576 18:28:00 -1584.236022  -0.34  -1.96
iter: 577 18:39:35 -1584.072911  -0.69  -1.88
iter: 578 18:51:12 -1583.771745  -0.99  -1.84
iter: 579 19:02:42 -1582.633186  -1.45  -1.81
Writing to output.gpw (mode='')

iter: 580 19:14:18 -1587.230616  +1.18  -1.86
iter: 581 19:25:43 -1584.339287  -0.44  -1.69
iter: 582 19:37:19 -1581.151272  +0.04  -1.70
iter: 583 19:48:59 -1581.612792  -0.47  -1.89
iter: 584 20:00:30 -1581.512400  +0.19  -1.95
Writing to output.gpw (mode='')

iter: 585 20:12:15 -1583.441450  +0.79  -2.21
iter: 586 20:23:45 -1582.604389  -1.11  -2.20
iter: 587 20:35:18 -1583.202296  +0.35  -2.33
iter: 588 20:46:54 -1583.831416  -0.10  -2.18
iter: 589 20:58:30 -1584.430703  -0.08  -2.01
Writing to output.gpw (mode='')

iter: 590 21:10:02 -1584.168521  -0.52  -1.90
iter: 591 21:21:25 -1581.809093  -0.57  -1.85
iter: 592 21:33:10 -1583.461268  -0.93  -2.03
iter: 593 21:44:42 -1583.482569  -1.39  -1.90
iter: 594 21:56:05 -1586.460835  +0.36  -1.87
Writing to output.gpw (mode='')

iter: 595 22:07:38 -1583.742812  -1.27  -1.66
iter: 596 22:19:30 -1582.935954  -1.18  -1.69
iter: 597 22:31:09 -1588.776214  +0.57  -1.71
iter: 598 22:42:48 -1578.347426  +0.76  -1.47
iter: 599 22:54:05 -1579.251590  +0.63  -1.78
Writing to output.gpw (mode='')

iter: 600 23:05:50 -1580.847367  +0.32  -2.05
iter: 601 23:17:40 -1581.842147  -0.33  -2.31
iter: 602 23:29:19 -1582.803671  +0.23  -2.57
iter: 603 23:40:55 -1587.158307  +0.91  -2.39
iter: 604 23:52:26 -1588.960547  +0.58  -1.78
Writing to output.gpw (mode='')

iter: 605 00:03:55 -1588.472414  +0.17  -1.65
iter: 606 00:15:17 -1584.683032  -0.93  -1.59
iter: 607 00:26:38 -1581.762662  -0.23  -1.62
iter: 608 00:38:04 -1580.932838  +0.41  -1.70
iter: 609 00:49:35 -1581.543404  +0.22  -1.91
Writing to output.gpw (mode='')

iter: 610 01:01:23 -1582.003748  +0.07  -2.15
iter: 611 01:12:53 -1582.324321  -1.29  -2.35
iter: 612 01:24:25 -1583.726266  -0.03  -2.42
iter: 613 01:35:58 -1584.169301  -0.32  -1.97
iter: 614 01:47:32 -1584.169803  -0.59  -1.88
Writing to output.gpw (mode='')

iter: 615 01:59:26 -1584.255365c -0.71  -1.83
iter: 616 02:11:03 -1581.822295  -0.59  -1.79
iter: 617 02:22:56 -1582.147015  +0.54  -1.93
iter: 618 02:34:35 -1582.401196  -1.17  -2.67
iter: 619 02:46:11 -1585.675010  +0.87  -2.56
Writing to output.gpw (mode='')

iter: 620 02:57:52 -1589.112358  +0.59  -1.79
iter: 621 03:09:41 -1589.586993  +0.19  -1.60
iter: 622 03:21:25 -1596.470652  +0.80  -1.54
iter: 623 03:33:01 -1581.123743  -0.27  -1.39
iter: 624 03:44:42 -1594.727874  +0.42  -1.50
Writing to output.gpw (mode='')

iter: 625 03:56:30 -1581.502573  -0.40  -1.38
iter: 626 04:08:29 -1627.899601  +1.89  -1.45
iter: 627 04:20:12 -1620.065895  +0.91  -1.17
iter: 628 04:32:00 -1610.272661  +0.41  -1.15
iter: 629 04:43:42 -1642.620437  +1.05  -1.15
Writing to output.gpw (mode='')

iter: 630 04:55:36 -1567.601462  +0.88  -1.07
iter: 631 05:07:14 -1931.508512  +2.44  -1.20
iter: 632 05:18:57 -1988.049614  +1.77  -0.69
iter: 633 05:30:43 -1999.769576  +1.42  -0.67
iter: 634 05:42:35 -2004.234422  +1.18  -0.66
Writing to output.gpw (mode='')

iter: 635 05:54:17 -1609.686331  +0.69  -0.64
iter: 636 06:06:01 -4954.576738  +2.58  -0.69
iter: 637 06:17:56 -4404.245867  +2.38  -0.30
iter: 638 06:29:59 -4268.283692  +2.13  -0.30
iter: 639 06:41:38 -4503.961636  +1.96  -0.30
Writing to output.gpw (mode='')

iter: 640 06:53:25 -1024.527798  +1.82  -0.29
iter: 641 07:05:14 -2146.208296  +2.98  -0.41
iter: 642 07:17:02 -3635.443357  +3.10  -0.31
iter: 643 07:29:00 -1921.656964  +2.41  -0.33
iter: 644 07:40:37  -968.114746  +1.80  -0.44
Writing to output.gpw (mode='')

iter: 645 07:52:24 -1275.909789  +3.33  -0.48
iter: 646 08:03:58 -2361.857652  +3.04  -0.58
iter: 647 08:15:50 -2583.871227  +2.34  -0.62
iter: 648 08:27:40 -2303.481537  +1.92  -0.61
iter: 649 08:39:20 -1736.948499  +1.65  -0.62
Writing to output.gpw (mode='')

iter: 650 08:51:11 -2443.505250  +2.71  -0.69
iter: 651 09:02:58 -2085.633921  +1.92  -0.59
iter: 652 09:14:37 -1949.854143  +1.66  -0.62
iter: 653 09:26:24 -1959.879591  +1.50  -0.64
iter: 654 09:38:07 -1611.063008  +1.64  -0.65
Writing to output.gpw (mode='')

iter: 655 09:49:50 -2102.649640  +2.46  -0.71
iter: 656 10:01:35 -2083.588971  +1.88  -0.64
iter: 657 10:13:21 -1877.408267  +1.40  -0.66
iter: 658 10:24:49 -1773.853594  +2.33  -0.69
iter: 659 10:36:20 -2087.964034  +2.21  -0.65
Writing to output.gpw (mode='')

iter: 660 10:48:06 -3226.698102  +3.31  -0.64
iter: 661 10:59:53 -2124.163897  +1.72  -0.39
iter: 662 11:11:28  -570.271718  +2.58  -0.42
iter: 663 11:23:14  -963.114034  +2.82  -0.51
iter: 664 11:34:57 -1378.163677  +2.60  -0.59
Writing to output.gpw (mode='')

iter: 665 11:46:29 -1506.100549  +2.26  -0.74
iter: 666 11:58:14 -1612.405862  +2.38  -0.86
iter: 667 12:10:02 -1572.142749  +1.58  -0.85
iter: 668 12:21:58 -1745.405525  +2.57  -0.89
iter: 669 12:33:42 -1809.107993  +2.02  -0.86
Writing to output.gpw (mode='')

iter: 670 12:45:32 -1730.525979  +1.53  -0.82
iter: 671 12:57:08 -1562.942054  +1.09  -0.81
iter: 672 13:08:48 -1494.073491  +2.19  -0.88
iter: 673 13:20:18 -1670.094237  +2.65  -1.11
iter: 674 13:31:57 -1653.061238  +1.70  -0.89
Writing to output.gpw (mode='')

iter: 675 13:43:48 -1608.373634  +1.26  -0.89
iter: 676 13:55:27 -1616.080273  +0.87  -0.91
iter: 677 14:07:07 -1676.316258  +1.17  -0.90
iter: 678 14:18:48 -1649.295226  +2.43  -0.86
iter: 679 14:30:33 -1568.847938  +1.38  -1.05
Writing to output.gpw (mode='')

iter: 680 14:42:15 -1697.149707  +2.42  -1.16
iter: 681 14:53:48 -1697.337240  +1.65  -0.98
iter: 682 15:05:14 -1670.658429  +1.19  -0.94
iter: 683 15:16:59 -1667.896149  +1.03  -0.93
iter: 684 15:28:20 -1604.375079  +0.55  -0.92
Writing to output.gpw (mode='')

iter: 685 15:40:00 -1537.771965  +1.63  -0.96
iter: 686 15:51:40 -1542.943219  +1.60  -1.12
iter: 687 16:02:59 -1573.183181  +1.98  -1.25
iter: 688 16:14:27 -1616.655633  +1.98  -1.46
iter: 689 16:26:10 -1585.082953  +0.55  -1.32
Writing to output.gpw (mode='')

iter: 690 16:37:36 -1599.210171  +0.87  -1.37
iter: 691 16:49:15 -1660.702270  +1.84  -1.31
iter: 692 17:00:54 -1713.739892  +1.80  -1.05
iter: 693 17:12:27 -1622.401610  +0.62  -0.93
iter: 694 17:23:56 -1560.460905  +2.27  -0.94
Writing to output.gpw (mode='')

iter: 695 17:35:25 -1576.490337  +0.99  -1.51
iter: 696 17:47:08 -1594.592929  +1.16  -1.52
iter: 697 17:58:50 -1596.957492  +0.68  -1.38
iter: 698 18:10:24 -1574.464750  +1.16  -1.33
iter: 699 18:22:10 -1615.151128  +2.06  -1.57
Writing to output.gpw (mode='')

iter: 700 18:33:57 -1590.713686  +0.42  -1.35
iter: 701 18:45:24 -1665.859064  +1.93  -1.37
iter: 702 18:57:17 -1680.779663  +1.32  -1.03
iter: 703 19:09:12 -1700.240185  +1.24  -0.97
iter: 704 19:21:14 -1653.470470  +0.59  -0.92
Writing to output.gpw (mode='')

iter: 705 19:33:02 -1528.298183  +1.86  -0.91
iter: 706 19:44:33 -1548.522722  +1.60  -1.24
iter: 707 19:56:04 -1572.496577  +0.59  -1.42
iter: 708 20:07:27 -1581.671076  +0.33  -1.46
iter: 709 20:18:59 -1575.915991  +1.12  -1.44
Writing to output.gpw (mode='')

iter: 710 20:30:39 -1584.082978  +1.33  -1.55
iter: 711 20:42:16 -1585.368015  +0.66  -1.54
iter: 712 20:54:01 -1581.863746  +0.01  -1.54
iter: 713 21:05:28 -1592.107997  +1.14  -1.64
iter: 714 21:17:11 -1583.295357  -0.15  -1.53
Writing to output.gpw (mode='')

iter: 715 21:28:57 -1587.150003  +0.44  -1.58
iter: 716 21:40:42 -1585.267120  +1.50  -1.51
iter: 717 21:52:18 -1581.987119  -0.18  -1.74
iter: 718 22:04:00 -1583.679019  +0.82  -1.84
iter: 719 22:15:37 -1587.442241  +0.92  -1.86
Writing to output.gpw (mode='')

iter: 720 22:27:15 -1586.912057  +0.20  -1.69
iter: 721 22:38:42 -1584.446987  +1.29  -1.63
iter: 722 22:50:20 -1584.068816  +0.14  -1.85
iter: 723 23:01:56 -1583.573882  +0.79  -1.83
iter: 724 23:13:35 -1585.074812  +0.46  -2.00
Writing to output.gpw (mode='')

iter: 725 23:25:05 -1581.638289  +0.13  -1.84
iter: 726 23:36:40 -1582.330631  +0.33  -2.08
iter: 727 23:48:01 -1582.101715  -1.01  -2.13
iter: 728 23:59:36 -1583.099140  +0.29  -2.22
iter: 729 00:11:12 -1589.648136  +1.12  -2.07
Writing to output.gpw (mode='')

iter: 730 00:22:49 -1589.931292  +0.27  -1.55
iter: 731 00:34:31 -1593.223045  +0.35  -1.50
iter: 732 00:46:08 -1580.706625  -0.11  -1.44
iter: 733 00:57:44 -1592.339882  +0.33  -1.53
iter: 734 01:09:26 -1581.151272  +0.44  -1.42
Writing to output.gpw (mode='')

iter: 735 01:20:56 -1579.464206  +0.91  -1.56
iter: 736 01:32:39 -1595.912444  +1.56  -1.71
iter: 737 01:44:23 -1586.836018  +0.30  -1.49
iter: 738 01:56:06 -1581.091384  +1.40  -1.51
iter: 739 02:07:41 -1582.866927  +0.38  -2.09
Writing to output.gpw (mode='')

iter: 740 02:19:16 -1582.552922  -0.25  -2.02
iter: 741 02:30:42 -1582.921166  -0.08  -2.16
iter: 742 02:42:13 -1582.219786  -0.09  -2.12
iter: 743 02:53:46 -1582.312636  -0.19  -2.31
iter: 744 03:05:17 -1582.381379c -0.88  -2.50
Writing to output.gpw (mode='')

iter: 745 03:17:02 -1582.449509c -1.03  -2.46
iter: 746 03:28:28 -1582.473802c -1.12  -2.39
iter: 747 03:40:06 -1582.443233c -1.18  -2.33
iter: 748 03:51:48 -1582.980020  -0.30  -2.32
iter: 749 04:03:29 -1582.950237  -0.88  -2.10
Writing to output.gpw (mode='')

iter: 750 04:15:10 -1584.086590  +0.08  -2.06
iter: 751 04:26:45 -1583.915503  -0.64  -1.83
iter: 752 04:38:32 -1584.233798  -0.39  -1.79
iter: 753 04:50:05 -1584.330096  -0.78  -1.73
iter: 754 05:01:45 -1584.343105c -0.92  -1.70
Writing to output.gpw (mode='')

iter: 755 05:13:14 -1588.892254  +0.54  -1.69
iter: 756 05:24:54 -1580.406472  +0.17  -1.49
iter: 757 05:36:30 -1582.893069  -1.07  -1.65
iter: 758 05:47:54 -1585.925138  -0.40  -1.64
iter: 759 05:59:28 -1583.400529  -1.25  -1.57
Writing to output.gpw (mode='')

iter: 760 06:10:52 -1583.226406  +1.04  -1.60
iter: 761 06:22:09 -1587.210895  +0.82  -1.89
iter: 762 06:33:47 -1583.406261  -0.54  -1.71
iter: 763 06:45:33 -1592.627573  +1.43  -1.75
iter: 764 06:57:05 -1594.310386  +0.65  -1.53
Writing to output.gpw (mode='')

iter: 765 07:08:50 -1590.487714  +0.02  -1.46
iter: 766 07:20:25 -1578.792382  +0.40  -1.45
iter: 767 07:32:00 -1578.059604  +0.65  -1.61
iter: 768 07:43:33 -1579.618540  +0.56  -1.78
iter: 769 07:55:10 -1580.940202  +0.29  -1.99
Writing to output.gpw (mode='')

iter: 770 08:06:58 -1582.138639  +0.38  -2.21
iter: 771 08:18:33 -1582.990481  +0.15  -2.52
iter: 772 08:30:15 -1583.359316  -0.23  -2.31
iter: 773 08:41:52 -1584.155105  -0.08  -2.10
iter: 774 08:53:33 -1583.784036  -0.69  -1.95
Writing to output.gpw (mode='')

iter: 775 09:05:23 -1583.643935  -0.74  -1.90
iter: 776 09:17:00 -1583.588060  -1.00  -1.86
iter: 777 09:28:54 -1583.164307  -1.28  -1.83
iter: 778 09:40:28 -1587.442729  +0.48  -1.83
iter: 779 09:52:06 -1582.163822  -0.37  -1.54
Writing to output.gpw (mode='')

iter: 780 10:03:42 -1580.974945  +0.07  -1.61
iter: 781 10:15:28 -1582.425861  -0.78  -1.69
iter: 782 10:26:57 -1581.267773  +0.33  -1.71
iter: 783 10:38:45 -1585.900170  +1.17  -1.93
iter: 784 10:50:26 -1584.149960  -0.33  -1.79
Writing to output.gpw (mode='')

iter: 785 11:02:02 -1582.680838  -0.78  -1.78
iter: 786 11:13:33 -1581.892629  -0.05  -1.85
iter: 787 11:24:49 -1582.216731  -0.73  -2.03
iter: 788 11:36:30 -1583.591092  +0.72  -2.07
iter: 789 11:48:09 -1582.944136  -0.81  -2.08
Writing to output.gpw (mode='')

iter: 790 11:59:57 -1582.313763  -0.46  -2.08
iter: 791 12:11:44 -1582.470599  -1.56  -2.34
iter: 792 12:23:19 -1582.557989  -2.05  -2.35
iter: 793 12:35:05 -1582.496521c -0.43  -2.35
iter: 794 12:46:36 -1582.549856c -0.98  -2.66
Writing to output.gpw (mode='')

iter: 795 12:58:21 -1582.547349c -1.40  -2.69
iter: 796 13:09:46 -1582.544160c -1.94  -2.79
iter: 797 13:21:16 -1582.540877c -2.13  -2.81
iter: 798 13:32:39 -1582.548934c -1.87  -2.85
iter: 799 13:44:09 -1582.556977c -2.14  -2.87
Writing to output.gpw (mode='')

iter: 800 13:55:47 -1582.562748c -2.16  -2.85
iter: 801 14:07:33 -1582.603219c -1.36  -2.81
iter: 802 14:19:06 -1582.604822c -1.82  -2.62
iter: 803 14:30:41 -1582.613762c -2.07  -2.56
iter: 804 14:42:12 -1582.594426c -1.27  -2.53
Writing to output.gpw (mode='')

iter: 805 14:53:47 -1582.597664c -2.40  -2.53
iter: 806 15:05:28 -1582.606066c -2.16  -2.53
iter: 807 15:17:11 -1582.611401c -2.12  -2.51
iter: 808 15:28:46 -1582.645754c -1.22  -2.49
iter: 809 15:40:19 -1582.542990c -1.43  -2.39
Writing to output.gpw (mode='')

iter: 810 15:51:40 -1582.651450c -0.34  -2.54
iter: 811 16:03:11 -1582.579099c -1.97  -2.63
iter: 812 16:15:01 -1582.567944c -1.26  -2.72
iter: 813 16:26:49 -1582.591682c -2.04  -2.96
iter: 814 16:38:28 -1582.587519c -2.36  -2.92
Writing to output.gpw (mode='')

iter: 815 16:50:03 -1582.587960c -2.62  -2.95
iter: 816 17:01:30 -1582.598173c -2.31  -2.93
iter: 817 17:13:02 -1582.583562c -2.54  -2.85
iter: 818 17:24:37 -1582.669531c -0.71  -2.95
iter: 819 17:36:19 -1582.585804c -2.00  -2.51
Writing to output.gpw (mode='')

iter: 820 17:47:47 -1582.658910c -1.82  -2.59
iter: 821 17:59:07 -1582.648440c -2.27  -2.50
iter: 822 18:10:48 -1582.650480c -2.27  -2.48
iter: 823 18:22:37 -1582.565516c -1.41  -2.46
iter: 824 18:34:14 -1582.572847c -1.88  -2.67
Writing to output.gpw (mode='')

iter: 825 18:46:04 -1582.609580c -2.52  -2.75
iter: 826 18:57:40 -1582.605241c -2.74  -2.70
iter: 827 19:09:23 -1582.591097c -2.07  -2.71
iter: 828 19:21:07 -1582.591241c -1.64  -2.80
iter: 829 19:32:41 -1582.621844c -1.08  -3.04
Writing to output.gpw (mode='')

iter: 830 19:44:29 -1582.607814c -2.41  -2.88
iter: 831 19:55:56 -1582.603007c -2.41  -2.91
iter: 832 20:07:33 -1582.619143c -2.14  -2.97
iter: 833 20:19:12 -1582.638414c -1.70  -2.84
iter: 834 20:30:55 -1582.628796c -2.35  -2.70
Writing to output.gpw (mode='')

iter: 835 20:42:36 -1582.625047c -2.52  -2.69
iter: 836 20:54:28 -1582.626568c -2.78  -2.66
iter: 837 21:06:12 -1582.621231c -2.80  -2.65
iter: 838 21:18:02 -1582.621832c -2.44  -2.66
iter: 839 21:29:40 -1582.606259c -1.36  -2.65
Writing to output.gpw (mode='')

iter: 840 21:41:34 -1582.614133c -2.16  -3.06
iter: 841 21:53:17 -1582.616330c -2.61  -3.12
iter: 842 22:04:59 -1582.623416c -1.90  -3.09
iter: 843 22:16:36 -1582.662297c -0.98  -2.97
iter: 844 22:28:22 -1582.632963c -2.41  -2.67
Writing to output.gpw (mode='')

iter: 845 22:40:06 -1582.744941c -0.88  -2.68
iter: 846 22:51:43 -1582.815219  -1.24  -2.38
iter: 847 23:03:11 -1582.996667  -0.78  -2.29
iter: 848 23:14:59 -1583.090879  -0.85  -2.15
iter: 849 23:26:38 -1582.433551  -0.76  -2.07
Writing to output.gpw (mode='')

iter: 850 23:38:10 -1582.433136  -0.94  -2.28
iter: 851 23:49:48 -1582.553392c -1.86  -2.40
iter: 852 00:01:06 -1582.537952c -1.43  -2.43
iter: 853 00:12:26 -1582.603139c -0.47  -2.54
iter: 854 00:23:49 -1582.640429c -1.14  -3.06
Writing to output.gpw (mode='')

iter: 855 00:35:29 -1582.634598c -1.89  -2.97
iter: 856 00:47:06 -1582.628713c -2.44  -2.93
iter: 857 00:58:44 -1582.619948c -2.04  -2.95
iter: 858 01:10:23 -1582.622223c -2.09  -3.18
iter: 859 01:22:09 -1582.625122c -2.29  -3.35
Writing to output.gpw (mode='')

iter: 860 01:33:49 -1582.626845c -2.63  -3.45
iter: 861 01:45:43 -1582.627322c -3.03  -3.48
iter: 862 01:57:25 -1582.628683c -2.69  -3.57
iter: 863 02:09:15 -1582.628619c -3.16  -3.59
iter: 864 02:20:53 -1582.635262c -1.88  -3.65
Writing to output.gpw (mode='')

iter: 865 02:32:50 -1582.632601c -3.05  -3.18
iter: 866 02:44:37 -1582.658695c -1.46  -3.18
iter: 867 02:56:26 -1582.671968c -1.92  -2.72
iter: 868 03:07:56 -1582.641756c -3.11  -2.62
iter: 869 03:19:38 -1582.642878c -3.23  -2.65
Writing to output.gpw (mode='')

iter: 870 03:31:13 -1582.636951c -2.87  -2.65
iter: 871 03:42:46 -1582.650765c -1.03  -2.68
iter: 872 03:54:30 -1582.626728c -2.08  -2.84
iter: 873 04:06:16 -1582.631163c -1.61  -3.05
iter: 874 04:18:19 -1582.633954c -2.90  -3.46
Writing to output.gpw (mode='')

iter: 875 04:30:02 -1582.639758c -2.27  -3.52
iter: 876 04:41:43 -1582.634959c -2.80  -3.19
iter: 877 04:53:22 -1582.635468c -2.64  -3.36
iter: 878 05:05:08 -1582.636317c -3.10  -3.48
iter: 879 05:16:49 -1582.637031c -2.78  -3.53
Writing to output.gpw (mode='')

iter: 880 05:28:32 -1582.637628c -3.28  -3.65
iter: 881 05:40:08 -1582.638509c -2.92  -3.66
