
  ___ ___ ___ _ _ _  
 |   |   |_  | | | | 
 | | | | | . | | | | 
 |__ |  _|___|_____|  22.8.0
 |___|_|             

User:   vazumah@c21.hercules
Date:   Sun Feb 12 10:29:32 2023
Arch:   x86_64
Pid:    9606
CWD:    /home/vazumah/Python_projects/LiNRR/autocad_start/slab_experiments/free_slabs/Sr/fcc111/substrate
Python: 3.10.8
gpaw:   /home/vazumah/.conda/envs/GPAW/lib/python3.10/site-packages/gpaw
_gpaw:  /home/vazumah/.conda/envs/GPAW/lib/python3.10/site-packages/
        _gpaw.cpython-310-x86_64-linux-gnu.so
ase:    /home/vazumah/.conda/envs/GPAW/lib/python3.10/site-packages/ase (version 3.22.1)
numpy:  /home/vazumah/.conda/envs/GPAW/lib/python3.10/site-packages/numpy (version 1.24.1)
scipy:  /home/vazumah/.conda/envs/GPAW/lib/python3.10/site-packages/scipy (version 1.10.0)
libxc:  5.2.3
units:  Angstrom and eV
cores: 24
OpenMP: True
OMP_NUM_THREADS: 1

Reading from output.gpw
Reading input parameters:
  eigensolver: {name: dav,
                niter: 3}
  h: 0.16
  kpts: {size: [4, 4, 1]}
  maxiter: 999
  mixer: {backend: pulay,
          beta: 0.02,
          method: separate,
          nmaxold: 5,
          weight: 100}
  occupations: {name: fermi-dirac,
                width: 0.05}
  poissonsolver: {dipolelayer: xy}
  xc: BEEF-vdW

Initialize ...

species:
  Sr:
    name: Strontium
    id: 1681cef0785a8ddd65899c0215808a0d
    Z: 38.0
    valence: 10
    core: 28
    charge: 0.0
    file: /home/vazumah/.conda/envs/GPAW/share/gpaw/Sr.PBE.gz
    compensation charges: {type: gauss,
                           rc: 0.40,
                           lmax: 2}
    cutoffs: {filter: 2.39,
              core: 1.85}
    valence states:
      #              energy  rcut
      - 4s(2.00)   -40.883   1.291
      - 5s(2.00)    -3.525   1.291
      - 4p(6.00)   -22.826   1.291
      -  p           4.386   1.291
      -  d           0.000   1.254
  
    # Using partial waves for Sr as LCAO basis

Reference energy: -3113883.720283  # eV

Spin-paired calculation

Convergence criteria:
 Maximum [total energy] change in last 3 cyles: 0.0005 eV / electron
 Maximum integral of absolute [dens]ity change: 0.0001 electrons / valence electron
 Maximum integral of absolute [eigenst]ate change: 4e-08 eV^2 / valence electron
 Maximum number of scf [iter]ations: 999
 (Square brackets indicate name in SCF output, whereas a 'c' in
 the SCF output indicates the quantity has converged.)

Symmetries present (total): 12

  ( 1  0  0)  ( 1  0  0)  ( 1 -1  0)  ( 1 -1  0)  ( 0  1  0)  ( 0  1  0)
  ( 1 -1  0)  ( 0  1  0)  ( 1  0  0)  ( 0 -1  0)  ( 1  0  0)  (-1  1  0)
  ( 0  0 -1)  ( 0  0  1)  ( 0  0 -1)  ( 0  0  1)  ( 0  0  1)  ( 0  0 -1)

  ( 0 -1  0)  ( 0 -1  0)  (-1  1  0)  (-1  1  0)  (-1  0  0)  (-1  0  0)
  ( 1 -1  0)  (-1  0  0)  ( 0  1  0)  (-1  0  0)  ( 0 -1  0)  (-1  1  0)
  ( 0  0  1)  ( 0  0 -1)  ( 0  0 -1)  ( 0  0  1)  ( 0  0 -1)  ( 0  0  1)
Note: your k-points are not as symmetric as your crystal!

16 k-points: 4 x 4 x 1 Monkhorst-Pack grid
6 k-points in the irreducible part of the Brillouin zone
       k-points in crystal coordinates                weights
   0:     0.12500000   -0.12500000    0.00000000          2/16
   1:     0.12500000    0.12500000    0.00000000          2/16
   2:     0.37500000   -0.37500000    0.00000000          2/16
   3:     0.37500000   -0.12500000    0.00000000          4/16
   4:     0.37500000    0.12500000    0.00000000          4/16
   5:     0.37500000    0.37500000    0.00000000          2/16

Wave functions: Uniform real-space grid
  Kinetic energy operator: 8*3+1=25 point O(h^6) finite-difference Laplacian
  ScaLapack parameters: grid=1x1, blocksize=None
  Wavefunction extrapolation:
    Improved wavefunction reuse through dual PAW basis 

Occupation numbers: Fermi-Dirac:
  width: 0.0500  # eV
 

Eigensolver
   Davidson(niter=3) 

Densities:
  Coarse grid: 68*68*192 grid
  Fine grid: 136*136*384 grid
  Total Charge: 0.000000 

Density mixing:
  Method: separate
  Backend: pulay
  Linear mixing parameter: 0.02
  old densities: 5
  Damping of long wavelength oscillations: 100 

Hamiltonian:
  XC and Coulomb potentials evaluated on a 136*136*384 grid
  Using the BEEF-vdW Exchange-Correlation functional
  Interpolation: tri-quintic (5. degree polynomial)
  Poisson solver: FastPoissonSolver using
    Stencil: 8*3+1=25 point O(h^6) finite-difference Laplacian
    FFT axes: [0, 1]
    FST axes: [2]

Dipole correction along z-axis 

XC parameters: BEEF-vdW with 2 nearest neighbor stencil

Memory estimate:
  Process memory now: 243.43 MiB
  Calculator: 1393.27 MiB
    Density: 132.47 MiB
      Arrays: 43.53 MiB
      Localized functions: 72.35 MiB
      Mixer: 16.58 MiB
    Hamiltonian: 34.82 MiB
      Arrays: 28.47 MiB
      XC: 0.00 MiB
      Poisson: 0.00 MiB
      vbar: 6.35 MiB
    Wavefunctions: 1225.98 MiB
      Arrays psit_nG: 596.91 MiB
      Eigensolver: 618.44 MiB
      Projections: 0.32 MiB
      Projectors: 10.31 MiB

Total number of cores used: 24
Parallelization over k-points: 6
Domain decomposition: 1 x 1 x 4

Number of atoms: 36
Number of atomic orbitals: 180
Number of bands in calculation: 180
Number of valence electrons: 360
Bands to converge: occupied

... initialized

Initializing position-dependent things.

Creating initial wave functions:
  180 bands from LCAO basis set

                                                            
                                                            
                                                            
                                                            
                                                            
                       Sr        Sr         Sr              
                                                            
                                                            
               Sr       SrSr       SSr       Sr             
                                                            
       Sr         Sr        Sr                              
                 Sr        Sr         Sr                    
                                                            
         Sr        Sr        SSr       Sr         Sr        
                                                            
                                                            
                     Sr         Sr        Sr                
                                                            
             Sr        SSr       SrSr       Sr              
                                                            
                                                            
               Sr         Sr        Sr                      
                                                            
       Sr         Sr        Sr                              
                                                            
                                                            
                                                            
                                                            

Positions:
   0 Sr     0.000000    0.000000   10.000000    ( 0.0000,  0.0000,  0.0000)
   1 Sr     4.299209    0.000000   10.000000    ( 0.0000,  0.0000,  0.0000)
   2 Sr     8.598418    0.000000   10.000000    ( 0.0000,  0.0000,  0.0000)
   3 Sr     2.149605    3.723224   10.000000    ( 0.0000,  0.0000,  0.0000)
   4 Sr     6.448814    3.723224   10.000000    ( 0.0000,  0.0000,  0.0000)
   5 Sr    10.748023    3.723224   10.000000    ( 0.0000,  0.0000,  0.0000)
   6 Sr     4.299209    7.446449   10.000000    ( 0.0000,  0.0000,  0.0000)
   7 Sr     8.598418    7.446449   10.000000    ( 0.0000,  0.0000,  0.0000)
   8 Sr    12.897628    7.446449   10.000000    ( 0.0000,  0.0000,  0.0000)
   9 Sr     2.149605    1.241075   13.510290    ( 0.0000,  0.0000,  0.0000)
  10 Sr     6.448814    1.241075   13.510290    ( 0.0000,  0.0000,  0.0000)
  11 Sr    10.748023    1.241075   13.510290    ( 0.0000,  0.0000,  0.0000)
  12 Sr     4.299209    4.964299   13.510290    ( 0.0000,  0.0000,  0.0000)
  13 Sr     8.598418    4.964299   13.510290    ( 0.0000,  0.0000,  0.0000)
  14 Sr    12.897628    4.964299   13.510290    ( 0.0000,  0.0000,  0.0000)
  15 Sr     6.448814    8.687524   13.510290    ( 0.0000,  0.0000,  0.0000)
  16 Sr    10.748023    8.687524   13.510290    ( 0.0000,  0.0000,  0.0000)
  17 Sr    15.047232    8.687524   13.510290    ( 0.0000,  0.0000,  0.0000)
  18 Sr     0.000000    2.482150   17.020579    ( 0.0000,  0.0000,  0.0000)
  19 Sr     4.299209    2.482150   17.020579    ( 0.0000,  0.0000,  0.0000)
  20 Sr     8.598418    2.482150   17.020579    ( 0.0000,  0.0000,  0.0000)
  21 Sr     2.149605    6.205374   17.020579    ( 0.0000,  0.0000,  0.0000)
  22 Sr     6.448814    6.205374   17.020579    ( 0.0000,  0.0000,  0.0000)
  23 Sr    10.748023    6.205374   17.020579    ( 0.0000,  0.0000,  0.0000)
  24 Sr     4.299209    9.928598   17.020579    ( 0.0000,  0.0000,  0.0000)
  25 Sr     8.598418    9.928598   17.020579    ( 0.0000,  0.0000,  0.0000)
  26 Sr    12.897628    9.928598   17.020579    ( 0.0000,  0.0000,  0.0000)
  27 Sr     0.000000    0.000000   20.530869    ( 0.0000,  0.0000,  0.0000)
  28 Sr     4.299209    0.000000   20.530869    ( 0.0000,  0.0000,  0.0000)
  29 Sr     8.598418    0.000000   20.530869    ( 0.0000,  0.0000,  0.0000)
  30 Sr     2.149605    3.723224   20.530869    ( 0.0000,  0.0000,  0.0000)
  31 Sr     6.448814    3.723224   20.530869    ( 0.0000,  0.0000,  0.0000)
  32 Sr    10.748023    3.723224   20.530869    ( 0.0000,  0.0000,  0.0000)
  33 Sr     4.299209    7.446449   20.530869    ( 0.0000,  0.0000,  0.0000)
  34 Sr     8.598418    7.446449   20.530869    ( 0.0000,  0.0000,  0.0000)
  35 Sr    12.897628    7.446449   20.530869    ( 0.0000,  0.0000,  0.0000)

Unit cell:
           periodic     x           y           z      points  spacing
  1. axis:    yes   12.897628    0.000000    0.000000    68     0.1643
  2. axis:    yes    6.448814   11.169673    0.000000    68     0.1643
  3. axis:    no     0.000000    0.000000   30.530869   192     0.1590

  Lengths:  12.897628  12.897628  30.530869
  Angles:   90.000000  90.000000  60.000000

Effective grid spacing dv^(1/3) = 0.1705

     iter     time        total  log10-change:
                         energy  eigst   dens
iter:   1 10:47:02 -3849.406334  +0.69
iter:   2 11:02:16 -3858.859425  +0.62  -1.59
iter:   3 11:17:18 -3863.792492  +0.09  -1.67
iter:   4 11:32:27 -3866.523623  +0.02  -1.83
Writing to output.gpw (mode='')

iter:   5 11:47:33 -3868.098875  -0.32  -2.05
iter:   6 12:02:38 -3868.831216  -0.46  -2.03
iter:   7 12:17:47 -3869.026062  -0.90  -2.00
iter:   8 12:32:57 -3869.287080  -0.94  -2.01
iter:   9 12:48:10 -3869.299500  -1.13  -1.94
Writing to output.gpw (mode='')

iter:  10 13:03:31 -3869.798917  -1.21  -2.05
iter:  11 13:18:53 -3870.025497  -1.03  -2.10
iter:  12 13:34:06 -3870.353461  -1.30  -2.01
iter:  13 13:49:18 -3870.563281  -1.12  -1.90
iter:  14 14:04:22 -3870.777378  -1.42  -1.83
Writing to output.gpw (mode='')

iter:  15 14:19:30 -3871.126825  -1.26  -1.78
iter:  16 14:34:39 -3870.265601  -1.46  -1.72
iter:  17 14:49:50 -3873.187178  -1.24  -1.77
iter:  18 15:04:56 -3871.330791  -1.27  -1.53
iter:  19 15:20:09 -3871.328791  -1.74  -1.56
Writing to output.gpw (mode='')

iter:  20 15:35:12 -3871.140394  -1.55  -1.58
iter:  21 15:50:24 -3871.276407  -1.92  -1.58
iter:  22 16:05:29 -3872.249680  -0.42  -1.59
iter:  23 16:20:36 -3869.825716  -0.83  -1.63
iter:  24 16:35:45 -3869.639217  -1.05  -1.83
Writing to output.gpw (mode='')

iter:  25 16:50:58 -3869.974644  -0.78  -2.31
iter:  26 17:06:12 -3870.128574  -1.43  -2.49
iter:  27 17:21:08 -3870.246486  -1.45  -2.42
iter:  28 17:36:24 -3870.140781c -1.87  -2.26
iter:  29 17:51:37 -3870.113404c -2.58  -2.27
Writing to output.gpw (mode='')

iter:  30 18:06:38 -3870.153738c -2.43  -2.28
iter:  31 18:21:46 -3870.116226c -2.60  -2.24
iter:  32 18:37:02 -3870.159064c -2.46  -2.26
iter:  33 18:52:17 -3870.269537c -1.79  -2.20
iter:  34 19:07:28 -3870.092109c -2.01  -2.25
Writing to output.gpw (mode='')

iter:  35 19:22:49 -3870.097389c -2.48  -2.35
iter:  36 19:38:04 -3870.285805  -1.92  -2.37
iter:  37 19:53:15 -3870.061348  -1.56  -2.24
iter:  38 20:08:31 -3870.143266  -1.70  -2.81
iter:  39 20:23:54 -3870.110677c -2.35  -2.64
Writing to output.gpw (mode='')

iter:  40 20:39:01 -3870.156386c -2.74  -2.68
iter:  41 20:54:17 -3870.129141c -2.56  -2.45
iter:  42 21:09:30 -3870.125986c -3.20  -2.48
iter:  43 21:24:37 -3870.129967c -2.86  -2.50
iter:  44 21:39:58 -3870.107911c -2.90  -2.49
Writing to output.gpw (mode='')

iter:  45 21:55:21 -3870.113621c -3.04  -2.80
iter:  46 22:10:35 -3870.126656c -3.16  -2.81
iter:  47 22:25:36 -3870.113148c -2.94  -2.70
iter:  48 22:40:46 -3870.152278c -2.68  -2.80
iter:  49 22:56:01 -3870.140862c -2.62  -2.61
Writing to output.gpw (mode='')

iter:  50 23:10:52 -3870.117132c -2.83  -2.60
iter:  51 23:26:05 -3870.119976c -2.96  -3.06
iter:  52 23:41:17 -3870.142563c -2.99  -3.13
iter:  53 23:56:43 -3870.138832c -2.83  -2.70
iter:  54 00:11:56 -3870.122579c -2.88  -2.67
Writing to output.gpw (mode='')

iter:  55 00:27:13 -3870.123760c -3.08  -3.27
iter:  56 00:42:30 -3870.131555c -3.19  -3.32
iter:  57 00:57:48 -3870.124421c -3.23  -2.96
iter:  58 01:11:43 -3870.125353c -3.30  -3.17
iter:  59 01:20:08 -3870.130758c -3.38  -3.28
Writing to output.gpw (mode='')

iter:  60 01:28:34 -3870.131854c -3.24  -3.08
iter:  61 01:37:00 -3870.134714c -3.51  -3.03
iter:  62 01:45:25 -3870.133754c -3.33  -2.93
iter:  63 01:53:51 -3870.132756c -3.62  -2.92
iter:  64 02:02:16 -3870.133528c -3.57  -2.94
Writing to output.gpw (mode='')

iter:  65 02:10:42 -3870.131350c -3.32  -2.94
iter:  66 02:19:06 -3870.132375c -3.36  -3.39
iter:  67 02:27:31 -3870.133397c -3.42  -3.45
iter:  68 02:35:54 -3870.134199c -3.47  -3.50
iter:  69 02:44:18 -3870.134851c -3.56  -3.80
Writing to output.gpw (mode='')

iter:  70 02:52:43 -3870.135501c -3.64  -3.79
iter:  71 03:01:09 -3870.136171c -3.56  -3.72
iter:  72 03:09:34 -3870.136820c -3.67  -3.68
iter:  73 03:18:00 -3870.137359c -3.63  -3.62
iter:  74 03:26:24 -3870.138521c -3.54  -3.63
Writing to output.gpw (mode='')

iter:  75 03:34:50 -3870.141021c -3.40  -3.56
iter:  76 03:43:16 -3870.139983c -3.57  -3.22
iter:  77 03:51:42 -3870.143978c -3.41  -3.35
iter:  78 04:00:07 -3870.146078c -3.36  -3.11
iter:  79 04:08:33 -3870.146922c -3.43  -3.02
Writing to output.gpw (mode='')

iter:  80 04:17:01 -3870.147332c -3.51  -2.97
iter:  81 04:25:27 -3870.150400c -3.48  -2.93
iter:  82 04:33:52 -3870.156502c -3.29  -2.85
iter:  83 04:42:18 -3870.154167c -3.40  -2.75
iter:  84 04:50:45 -3870.147998c -3.46  -2.74
Writing to output.gpw (mode='')

iter:  85 04:59:13 -3870.147256c -3.46  -2.84
iter:  86 05:07:39 -3870.152155c -3.46  -2.91
iter:  87 05:16:02 -3870.163954c -3.36  -2.87
iter:  88 05:24:28 -3870.147471c -2.91  -2.69
iter:  89 05:32:55 -3870.152956c -2.59  -3.16
Writing to output.gpw (mode='')

iter:  90 05:41:24 -3870.152752c -3.12  -3.22
iter:  91 05:49:54 -3870.153717c -3.37  -3.28
iter:  92 05:58:21 -3870.154532c -3.36  -3.42
iter:  93 06:07:01 -3870.155005c -3.57  -3.38
iter:  94 06:22:00 -3870.157002c -3.44  -3.38
Writing to output.gpw (mode='')

iter:  95 06:37:07 -3870.157799c -3.51  -3.27
iter:  96 06:52:07 -3870.161018c -3.37  -3.28
iter:  97 07:07:27 -3870.161125c -3.19  -3.17
iter:  98 07:22:29 -3870.162212c -3.32  -3.28
iter:  99 07:37:42 -3870.163282c -3.63  -3.28
Writing to output.gpw (mode='')

iter: 100 07:53:10 -3870.166505c -3.28  -3.27
iter: 101 08:08:26 -3870.168675c -3.41  -3.12
iter: 102 08:23:39 -3870.176449c -3.18  -3.06
iter: 103 08:38:52 -3870.180929c -2.98  -2.88
iter: 104 08:54:04 -3870.172447c -3.27  -2.79
Writing to output.gpw (mode='')

iter: 105 09:09:15 -3870.169733c -3.31  -2.87
iter: 106 09:24:18 -3870.176601c -3.45  -3.06
iter: 107 09:39:31 -3870.177800c -3.29  -2.96
iter: 108 09:55:05 -3870.174819c -3.55  -2.93
iter: 109 10:10:33 -3870.175413c -3.32  -3.01
Writing to output.gpw (mode='')

iter: 110 10:25:55 -3870.176147c -3.36  -3.07
iter: 111 10:41:01 -3870.179945c -3.38  -3.28
iter: 112 10:56:20 -3870.196148c -2.78  -3.20
iter: 113 11:11:44 -3870.191421c -3.24  -2.75
iter: 114 11:27:04 -3870.190657c -3.28  -2.77
Writing to output.gpw (mode='')

iter: 115 11:42:17 -3870.189409c -3.45  -2.79
iter: 116 11:57:34 -3870.186892c -3.30  -2.82
iter: 117 12:12:56 -3870.187670c -2.94  -2.98
iter: 118 12:28:12 -3870.195382c -2.66  -3.19
iter: 119 12:43:36 -3870.195789c -2.97  -3.13
Writing to output.gpw (mode='')

iter: 120 12:58:56 -3870.194563c -3.16  -3.08
iter: 121 13:14:09 -3870.196735c -3.63  -3.15
iter: 122 13:29:20 -3870.200297c -3.21  -3.14
iter: 123 13:44:36 -3870.200756c -3.31  -3.03
iter: 124 13:59:40 -3870.200609c -3.51  -3.06
Writing to output.gpw (mode='')

iter: 125 14:14:51 -3870.205032c -3.46  -3.09
iter: 126 14:30:22 -3870.204102c -3.48  -3.03
iter: 127 14:45:33 -3870.206030c -3.19  -3.09
iter: 128 15:00:48 -3870.212874c -2.97  -3.15
iter: 129 15:16:00 -3870.214703c -3.02  -3.05
Writing to output.gpw (mode='')

iter: 130 15:31:13 -3870.218195c -3.21  -2.98
iter: 131 15:46:37 -3870.213115c -3.52  -2.88
iter: 132 16:01:55 -3870.213252c -3.38  -2.94
iter: 133 16:17:21 -3870.216132c -3.69  -2.99
iter: 134 16:32:31 -3870.217262c -3.28  -2.97
Writing to output.gpw (mode='')

iter: 135 16:47:56 -3870.223459c -2.99  -2.97
iter: 136 17:03:11 -3870.217654c -3.20  -2.96
iter: 137 17:18:43 -3870.220093c -3.59  -3.09
iter: 138 17:34:13 -3870.222735c -3.46  -3.07
iter: 139 17:49:41 -3870.221015c -3.30  -3.00
Writing to output.gpw (mode='')

iter: 140 18:04:57 -3870.226347c -3.10  -3.15
iter: 141 18:20:10 -3870.227386c -3.18  -3.12
iter: 142 18:35:23 -3870.226121c -3.28  -3.08
iter: 143 18:50:31 -3870.227078c -3.44  -3.20
iter: 144 19:05:57 -3870.227972c -3.46  -3.21
Writing to output.gpw (mode='')

iter: 145 19:21:15 -3870.229295c -3.60  -3.21
iter: 146 19:36:30 -3870.230135c -3.60  -3.21
iter: 147 19:52:00 -3870.235986c -3.18  -3.23
iter: 148 20:07:24 -3870.234714c -3.32  -3.01
iter: 149 20:22:48 -3870.235689c -3.41  -3.11
Writing to output.gpw (mode='')

iter: 150 20:38:10 -3870.237166c -3.51  -3.13
iter: 151 20:53:34 -3870.240788c -3.37  -3.13
iter: 152 21:08:48 -3870.285648c -2.60  -3.06
iter: 153 21:24:13 -3870.263119c -2.98  -2.55
iter: 154 21:39:27 -3870.267511c -3.24  -2.58
Writing to output.gpw (mode='')

iter: 155 21:54:51 -3870.251680c -3.27  -2.57
iter: 156 22:10:11 -3870.249527c -3.20  -2.64
iter: 157 22:25:38 -3870.388078c -2.55  -2.68
iter: 158 22:41:03 -3870.202752  -2.24  -2.25
iter: 159 22:56:15 -3870.304192  -2.90  -2.51
Writing to output.gpw (mode='')

iter: 160 23:11:41 -3870.323172c -2.99  -2.40
iter: 161 23:26:55 -3870.360826c -2.69  -2.35
iter: 162 23:42:22 -3870.254017c -2.27  -2.28
iter: 163 23:57:47 -3870.290127c -1.70  -2.80
iter: 164 00:13:13 -3870.269928c -2.35  -2.68
Writing to output.gpw (mode='')

iter: 165 00:28:15 -3870.290662c -2.21  -2.94
iter: 166 00:43:26 -3870.283366c -2.62  -2.73
iter: 167 00:59:00 -3870.280823c -3.14  -2.68
iter: 168 01:14:12 -3870.258957c -2.93  -2.65
iter: 169 01:29:27 -3870.269501c -3.17  -3.02
Writing to output.gpw (mode='')

iter: 170 01:44:41 -3870.278363c -3.34  -2.93
iter: 171 02:00:03 -3870.296084c -2.86  -2.77
iter: 172 02:15:19 -3870.308763c -2.78  -2.63
iter: 173 02:30:22 -3870.320212c -2.70  -2.53
iter: 174 02:45:21 -3870.252265c -2.77  -2.46
Writing to output.gpw (mode='')

iter: 175 03:00:46 -3870.252605c -2.50  -2.67
iter: 176 03:16:05 -3870.268148c -2.30  -2.90
iter: 177 03:31:19 -3870.272666c -2.69  -3.02
iter: 178 03:46:35 -3870.286515c -3.03  -3.05
iter: 179 04:01:53 -3870.286546c -2.84  -2.77
Writing to output.gpw (mode='')

iter: 180 04:16:55 -3870.279934c -3.51  -2.71
iter: 181 04:32:26 -3870.276470c -3.71  -2.71
iter: 182 04:47:41 -3870.274296c -3.84  -2.73
iter: 183 05:02:48 -3870.283848c -3.65  -2.75
iter: 184 05:17:59 -3870.271215c -2.99  -2.69
Writing to output.gpw (mode='')

iter: 185 05:33:15 -3870.289934c -2.52  -2.88
iter: 186 05:48:19 -3870.274417c -2.85  -2.81
iter: 187 06:03:34 -3870.271801c -3.34  -2.93
iter: 188 06:18:43 -3870.273196c -3.10  -3.21
iter: 189 06:33:52 -3870.274599c -3.50  -3.25
Writing to output.gpw (mode='')

iter: 190 06:49:00 -3870.274872c -3.47  -3.26
iter: 191 07:04:11 -3870.274411c -3.93  -3.25
iter: 192 07:19:13 -3870.274547c -3.93  -3.30
iter: 193 07:34:36 -3870.274726c -3.92  -3.35
iter: 194 07:50:16 -3870.275026c -4.01  -3.40
Writing to output.gpw (mode='')

iter: 195 08:05:28 -3870.276505c -3.81  -3.41
iter: 196 08:20:45 -3870.276162c -4.12  -3.29
iter: 197 08:36:01 -3870.297903c -2.98  -3.31
iter: 198 08:51:07 -3870.270703c -3.14  -2.64
iter: 199 09:06:13 -3870.280008c -3.65  -2.85
Writing to output.gpw (mode='')

iter: 200 09:21:23 -3870.287488c -3.79  -2.84
iter: 201 09:36:21 -3870.283941c -3.95  -2.75
iter: 202 09:51:26 -3870.276976c -3.36  -2.76
iter: 203 10:06:41 -3870.277696c -3.41  -3.14
iter: 204 10:21:58 -3870.279962c -3.38  -3.18
Writing to output.gpw (mode='')

iter: 205 10:37:07 -3870.279740c -3.22  -3.13
iter: 206 10:52:24 -3870.278513c -3.73  -3.19
iter: 207 11:07:46 -3870.278939c -3.83  -3.46
iter: 208 11:23:04 -3870.280720c -3.93  -3.57
iter: 209 11:38:19 -3870.280289c -3.89  -3.31
Writing to output.gpw (mode='')

iter: 210 11:53:39 -3870.280217c -3.78  -3.29
iter: 211 12:08:41 -3870.280276c -3.94  -3.57
iter: 212 12:23:48 -3870.280173c -4.04  -3.55
iter: 213 12:38:54 -3870.280454c -4.17  -3.70
iter: 214 12:54:06 -3870.280606c -4.18  -3.69
Writing to output.gpw (mode='')

iter: 215 13:09:22 -3870.280778c -4.21  -3.66
iter: 216 13:24:33 -3870.281636c -4.19  -3.67
iter: 217 13:39:44 -3870.282122c -4.00  -3.40
iter: 218 13:55:03 -3870.282748c -4.18  -3.32
iter: 219 14:10:18 -3870.281301c -4.05  -3.24
Writing to output.gpw (mode='')

iter: 220 14:25:27 -3870.282175c -4.56  -3.39
iter: 221 14:40:43 -3870.281895c -4.08  -3.35
iter: 222 14:56:11 -3870.282131c -4.21  -3.60
iter: 223 15:11:22 -3870.282316c -4.30  -3.69
iter: 224 15:26:40 -3870.282516c -4.42  -3.67
Writing to output.gpw (mode='')

iter: 225 15:41:46 -3870.283943c -3.98  -3.59
iter: 226 15:56:57 -3870.284414c -3.92  -3.29
iter: 227 16:12:09 -3870.283457c -4.26  -3.23
iter: 228 16:27:24 -3870.284589c -4.42  -3.27
iter: 229 16:42:29 -3870.285299c -4.03  -3.18
Writing to output.gpw (mode='')

iter: 230 16:57:34 -3870.285268c -4.06  -3.13
iter: 231 17:13:04 -3870.285900c -3.50  -3.10
iter: 232 17:28:34 -3870.283891c -3.89  -3.25
iter: 233 17:43:50 -3870.283912c -4.03  -3.40
iter: 234 17:59:10 -3870.284092c -3.93  -3.86
Writing to output.gpw (mode='')

iter: 235 18:14:42 -3870.284053c -4.52  -3.76
iter: 236 18:30:03 -3870.284155c -4.54  -3.77
iter: 237 18:45:17 -3870.284211c -4.50  -3.73
iter: 238 19:00:30 -3870.284368c -4.60  -3.82
iter: 239 19:15:48 -3870.284767c -4.38  -3.79
Writing to output.gpw (mode='')

iter: 240 19:31:05 -3870.284681c -4.40  -3.56
iter: 241 19:46:14 -3870.285370c -4.33  -3.63
iter: 242 20:01:39 -3870.285318c -4.45  -3.46
iter: 243 20:16:49 -3870.286260c -4.35  -3.44
iter: 244 20:32:13 -3870.289234c -3.92  -3.25
Writing to output.gpw (mode='')

iter: 245 20:47:34 -3870.285805c -4.03  -3.04
iter: 246 21:02:52 -3870.285184c -4.41  -3.13
iter: 247 21:18:28 -3870.286810c -4.36  -3.25
iter: 248 21:33:53 -3870.285939c -4.61  -3.18
iter: 249 21:49:42 -3870.285469c -4.32  -3.24
Writing to output.gpw (mode='')

iter: 250 22:05:03 -3870.285480c -4.06  -3.38
iter: 251 22:20:46 -3870.285477c -4.21  -3.48
iter: 252 22:36:15 -3870.286327c -3.75  -3.75
iter: 253 22:51:45 -3870.286460c -3.71  -3.64
iter: 254 23:06:57 -3870.286160c -4.42  -3.55
Writing to output.gpw (mode='')

iter: 255 23:22:14 -3870.286114c -4.67  -3.64
iter: 256 23:37:20 -3870.286144c -4.48  -3.74
iter: 257 23:52:35 -3870.286249c -4.58  -3.93
iter: 258 00:07:49 -3870.286336c -4.73  -3.99
iter: 259 00:22:53 -3870.286458c -4.78  -3.95
Writing to output.gpw (mode='')

iter: 260 00:38:16 -3870.286621c -4.67  -3.95
iter: 261 00:53:32 -3870.287095c -4.45  -3.79
iter: 262 01:08:46 -3870.286635c -4.33  -3.55
iter: 263 01:24:08 -3870.287184c -4.55  -3.69
iter: 264 01:39:36 -3870.287164c -4.49  -3.56
Writing to output.gpw (mode='')

iter: 265 01:55:13 -3870.286898c -4.44  -3.53
iter: 266 02:10:23 -3870.287001c -4.53  -4.04c
iter: 267 02:25:32 -3870.287214c -4.58  -4.18c
iter: 268 02:40:54 -3870.287339c -4.69  -3.90
iter: 269 02:56:06 -3870.287272c -4.51  -3.76
Writing to output.gpw (mode='')

iter: 270 03:11:17 -3870.287349c -4.62  -4.03c
iter: 271 03:26:37 -3870.287513c -4.69  -4.05c
iter: 272 03:41:57 -3870.287754c -4.50  -3.92
iter: 273 03:57:16 -3870.287774c -4.58  -3.73
iter: 274 04:12:22 -3870.287826c -4.73  -3.70
Writing to output.gpw (mode='')

iter: 275 04:27:26 -3870.288183c -4.59  -3.65
iter: 276 04:42:54 -3870.287702c -4.47  -3.49
iter: 277 04:58:10 -3870.287903c -4.47  -3.67
iter: 278 05:13:21 -3870.287840c -4.81  -3.89
iter: 279 05:28:33 -3870.287885c -4.83  -4.03c
Writing to output.gpw (mode='')

iter: 280 05:43:43 -3870.288081c -4.66  -4.10c
iter: 281 05:59:13 -3870.288106c -4.69  -3.88
iter: 282 06:14:19 -3870.288061c -4.75  -3.83
iter: 283 06:29:42 -3870.288085c -4.86  -4.00
iter: 284 06:44:54 -3870.288094c -4.97  -4.05c
Writing to output.gpw (mode='')

iter: 285 07:00:15 -3870.288425c -4.72  -4.09c
iter: 286 07:15:33 -3870.288238c -4.90  -3.64
iter: 287 07:30:36 -3870.288697c -4.78  -3.72
iter: 288 07:45:46 -3870.288451c -5.04  -3.53
iter: 289 08:00:55 -3870.288498c -4.42  -3.56
Writing to output.gpw (mode='')

iter: 290 08:16:16 -3870.288718c -4.42  -3.88
iter: 291 08:31:42 -3870.288484c -4.80  -3.67
iter: 292 08:46:51 -3870.288463c -4.97  -3.79
iter: 293 09:02:22 -3870.288480c -4.82  -3.98
iter: 294 09:17:26 -3870.288583c -5.23  -4.10c
Writing to output.gpw (mode='')

iter: 295 09:32:52 -3870.288572c -5.12  -3.96
iter: 296 09:47:59 -3870.288688c -4.83  -4.11c
iter: 297 10:03:05 -3870.288699c -5.06  -4.12c
iter: 298 10:18:14 -3870.288700c -5.10  -4.10c
iter: 299 10:33:24 -3870.288747c -5.52  -4.19c
Writing to output.gpw (mode='')

iter: 300 10:48:52 -3870.288808c -5.09  -4.13c
iter: 301 11:04:06 -3870.289048c -4.64  -4.20c
iter: 302 11:19:21 -3870.288949c -4.55  -3.80
iter: 303 11:34:37 -3870.289005c -4.64  -4.17c
iter: 304 11:49:56 -3870.289022c -5.22  -4.15c
Writing to output.gpw (mode='')

iter: 305 12:05:07 -3870.289043c -5.36  -4.15c
iter: 306 12:20:29 -3870.289171c -4.87  -4.10c
iter: 307 12:35:54 -3870.289249c -4.67  -3.92
iter: 308 12:51:16 -3870.289074c -4.97  -3.79
iter: 309 13:06:45 -3870.289400c -4.82  -4.01c
Writing to output.gpw (mode='')

iter: 310 13:22:07 -3870.289355c -4.82  -3.70
iter: 311 13:37:19 -3870.289387c -5.17  -3.66
iter: 312 13:52:35 -3870.289443c -5.07  -3.61
iter: 313 14:07:58 -3870.289472c -5.12  -3.57
iter: 314 14:23:15 -3870.289541c -5.20  -3.53
Writing to output.gpw (mode='')

iter: 315 14:38:17 -3870.289214c -5.00  -3.50
iter: 316 14:53:31 -3870.289337c -5.38  -3.62
iter: 317 15:08:48 -3870.289347c -5.39  -3.62
iter: 318 15:24:04 -3870.289598c -4.42  -3.63
iter: 319 15:39:18 -3870.289358c -4.87  -3.63
Writing to output.gpw (mode='')

iter: 320 15:54:38 -3870.289303c -5.12  -3.74
iter: 321 16:10:10 -3870.289306c -4.80  -3.93
iter: 322 16:25:28 -3870.289346c -5.04  -4.22c
iter: 323 16:40:47 -3870.289600c -4.97  -4.22c
iter: 324 16:55:54 -3870.289657c -4.77  -3.70
Writing to output.gpw (mode='')

iter: 325 17:11:01 -3870.289637c -5.13  -3.64
iter: 326 17:26:23 -3870.289610c -5.20  -3.60
iter: 327 17:41:48 -3870.289441c -5.10  -3.59
iter: 328 17:57:06 -3870.289560c -5.41  -3.81
iter: 329 18:12:24 -3870.289518c -4.69  -3.75
Writing to output.gpw (mode='')

iter: 330 18:27:43 -3870.289632c -4.59  -4.15c
iter: 331 18:42:44 -3870.289876c -4.58  -3.93
iter: 332 18:57:51 -3870.289953c -4.34  -3.65
iter: 333 19:12:59 -3870.289670c -5.21  -3.56
iter: 334 19:28:01 -3870.289515c -4.97  -3.60
Writing to output.gpw (mode='')

iter: 335 19:43:14 -3870.289551c -4.83  -4.19c
iter: 336 19:58:09 -3870.289584c -4.98  -4.28c
iter: 337 20:13:04 -3870.289631c -4.93  -4.20c
iter: 338 20:28:08 -3870.289605c -5.28  -4.02c
iter: 339 20:43:10 -3870.289658c -5.57  -4.01c
Writing to output.gpw (mode='')

iter: 340 20:58:27 -3870.289615c -5.45  -3.87
iter: 341 21:13:32 -3870.289609c -5.28  -3.93
iter: 342 21:28:44 -3870.289632c -5.55  -4.28c
iter: 343 21:43:59 -3870.289973c -4.74  -4.21c
iter: 344 21:59:16 -3870.290039c -4.74  -3.60
Writing to output.gpw (mode='')

iter: 345 22:14:44 -3870.290155c -4.96  -3.54
iter: 346 22:30:01 -3870.289916c -5.24  -3.47
iter: 347 22:45:10 -3870.289649c -5.29  -3.48
iter: 348 23:00:12 -3870.289757c -5.58  -3.69
iter: 349 23:15:14 -3870.289723c -5.71  -3.67
Writing to output.gpw (mode='')

iter: 350 23:30:38 -3870.289936c -5.41  -3.70
iter: 351 23:45:57 -3870.289614c -4.72  -3.58
iter: 352 00:01:10 -3870.289669c -4.48  -3.94
iter: 353 00:16:34 -3870.289793c -4.66  -4.17c
iter: 354 00:32:00 -3870.289910c -4.35  -4.06c
Writing to output.gpw (mode='')

iter: 355 00:47:25 -3870.289814c -4.97  -3.84
iter: 356 01:02:39 -3870.289758c -5.06  -3.84
iter: 357 01:18:03 -3870.289794c -4.90  -4.23c
iter: 358 01:33:27 -3870.289804c -5.21  -4.11c
iter: 359 01:48:52 -3870.289783c -5.63  -4.01c
Writing to output.gpw (mode='')

iter: 360 02:04:15 -3870.289800c -5.90  -4.00c
iter: 361 02:19:27 -3870.289986c -5.17  -3.96
iter: 362 02:34:37 -3870.289832c -5.57  -3.66
iter: 363 02:49:52 -3870.289870c -5.81  -3.71
iter: 364 03:05:13 -3870.290001c -5.46  -3.69
Writing to output.gpw (mode='')

iter: 365 03:20:25 -3870.289765c -5.19  -3.60
iter: 366 03:35:41 -3870.289925c -5.52  -3.73
iter: 367 03:50:52 -3870.289946c -4.31  -3.67
iter: 368 04:05:56 -3870.290010c -4.47  -3.94
iter: 369 04:20:59 -3870.289847c -5.32  -3.82
Writing to output.gpw (mode='')

iter: 370 04:36:03 -3870.289860c -4.89  -3.93
iter: 371 04:51:16 -3870.289901c -4.62  -4.09c
iter: 372 05:06:25 -3870.289862c -5.64  -3.98
iter: 373 05:21:31 -3870.289840c -5.91  -3.99
iter: 374 05:36:52 -3870.289854c -6.24  -4.05c
Writing to output.gpw (mode='')

iter: 375 05:52:10 -3870.289845c -5.81  -4.05c
iter: 376 06:07:20 -3870.289873c -5.36  -4.09c
iter: 377 06:22:34 -3870.289877c -5.19  -4.12c
iter: 378 06:37:47 -3870.289871c -5.80  -4.20c
iter: 379 06:52:45 -3870.289994c -5.36  -4.20c
Writing to output.gpw (mode='')

iter: 380 07:07:55 -3870.290057c -5.19  -3.77
iter: 381 07:23:03 -3870.290022c -5.28  -3.68
iter: 382 07:38:13 -3870.289989c -5.72  -3.65
iter: 383 07:53:39 -3870.289844c -5.32  -3.65
iter: 384 08:09:00 -3870.289826c -5.06  -3.83
Writing to output.gpw (mode='')

iter: 385 08:24:09 -3870.289863c -5.19  -4.05c
iter: 386 08:39:24 -3870.289924c -5.28  -4.08c
iter: 387 08:54:21 -3870.289879c -5.58  -4.03c
iter: 388 09:09:16 -3870.289885c -5.57  -4.13c
iter: 389 09:24:31 -3870.289903c -5.36  -4.22c
Writing to output.gpw (mode='')

iter: 390 09:39:38 -3870.289915c -5.29  -4.16c
iter: 391 09:54:50 -3870.289916c -5.51  -4.12c
iter: 392 10:09:53 -3870.289905c -6.02  -4.23c
iter: 393 10:24:58 -3870.290019c -5.11  -4.27c
iter: 394 10:40:00 -3870.290156c -4.99  -3.81
Writing to output.gpw (mode='')

iter: 395 10:55:16 -3870.290089c -5.05  -3.65
iter: 396 11:10:36 -3870.289980c -5.85  -3.63
iter: 397 11:25:48 -3870.289884c -5.20  -3.67
iter: 398 11:41:02 -3870.289931c -5.51  -4.17c
iter: 399 11:56:15 -3870.289923c -5.91  -4.08c
Writing to output.gpw (mode='')

iter: 400 12:11:41 -3870.289910c -5.76  -4.07c
iter: 401 12:27:01 -3870.290157c -4.85  -4.12c
iter: 402 12:42:22 -3870.289898c -5.03  -3.71
iter: 403 12:57:38 -3870.290395c -4.53  -3.88
iter: 404 13:12:49 -3870.290201c -4.74  -3.56
Writing to output.gpw (mode='')

iter: 405 13:28:10 -3870.289989c -5.55  -3.56
iter: 406 13:43:31 -3870.290073c -5.88  -3.63
iter: 407 13:58:37 -3870.289974c -5.87  -3.61
iter: 408 14:13:52 -3870.290276c -4.48  -3.68
iter: 409 14:29:14 -3870.289842c -4.56  -3.64
Writing to output.gpw (mode='')

iter: 410 14:44:39 -3870.290015c -4.54  -4.03c
iter: 411 14:59:53 -3870.290076c -4.36  -4.06c
iter: 412 15:15:11 -3870.290066c -4.96  -3.88
iter: 413 15:30:23 -3870.290008c -5.50  -3.81
iter: 414 15:45:30 -3870.289948c -5.87  -3.82
Writing to output.gpw (mode='')

iter: 415 16:00:35 -3870.289975c -6.28  -3.90
iter: 416 16:15:52 -3870.289945c -6.01  -3.88
iter: 417 16:31:20 -3870.290032c -5.11  -4.00
iter: 418 16:46:51 -3870.289943c -5.42  -3.93
iter: 419 17:02:16 -3870.290067c -5.10  -4.08c
Writing to output.gpw (mode='')

iter: 420 17:17:38 -3870.290077c -4.82  -3.88
iter: 421 17:33:02 -3870.289987c -5.85  -3.82
iter: 422 17:48:30 -3870.290019c -6.10  -3.88
iter: 423 18:03:59 -3870.289984c -6.20  -3.84
iter: 424 18:19:27 -3870.289952c -5.91  -3.89
Writing to output.gpw (mode='')

iter: 425 18:35:00 -3870.290059c -5.01  -4.06c
iter: 426 18:50:03 -3870.289960c -5.25  -3.97
iter: 427 19:05:23 -3870.290070c -5.23  -4.26c
iter: 428 19:20:36 -3870.290009c -5.64  -3.92
iter: 429 19:35:41 -3870.289999c -6.27  -3.95
Writing to output.gpw (mode='')

iter: 430 19:50:48 -3870.289990c -6.33  -3.95
iter: 431 20:05:50 -3870.289955c -5.67  -3.98
iter: 432 20:20:55 -3870.289973c -6.09  -4.31c
iter: 433 20:36:22 -3870.289973c -6.01  -4.25c
iter: 434 20:51:55 -3870.289974c -6.11  -4.51c
Writing to output.gpw (mode='')

iter: 435 21:07:16 -3870.290046c -5.42  -4.55c
iter: 436 21:22:29 -3870.290028c -5.66  -3.94
iter: 437 21:37:42 -3870.289989c -5.35  -3.92
iter: 438 21:52:44 -3870.289989c -5.63  -4.47c
iter: 439 22:08:01 -3870.290020c -5.73  -4.45c
Writing to output.gpw (mode='')

iter: 440 22:23:36 -3870.290047c -5.28  -4.13c
iter: 441 22:39:00 -3870.290006c -5.92  -3.99
iter: 442 22:54:24 -3870.290005c -6.04  -4.03c
iter: 443 23:09:35 -3870.289981c -6.01  -4.04c
iter: 444 23:24:49 -3870.290009c -5.34  -4.32c
Writing to output.gpw (mode='')

iter: 445 23:40:00 -3870.289994c -6.10  -4.38c
iter: 446 23:55:13 -3870.289993c -6.20  -4.57c
iter: 447 00:10:39 -3870.289995c -6.19  -4.79c
iter: 448 00:26:03 -3870.289996c -6.29  -4.99c
iter: 449 00:41:14 -3870.289999c -6.38  -5.01c
Writing to output.gpw (mode='')

iter: 450 00:56:33 -3870.290000c -6.60  -4.85c
iter: 451 01:11:35 -3870.290001c -6.54  -4.89c
iter: 452 01:26:38 -3870.290002c -6.42  -4.86c
iter: 453 01:41:39 -3870.290008c -6.28  -4.84c
iter: 454 01:56:48 -3870.290008c -6.68  -4.63c
Writing to output.gpw (mode='')

iter: 455 02:12:07 -3870.290017c -6.17  -4.65c
iter: 456 02:27:25 -3870.290014c -6.16  -4.43c
iter: 457 02:42:36 -3870.290018c -6.51  -4.52c
iter: 458 02:57:37 -3870.290023c -6.09  -4.52c
iter: 459 03:12:59 -3870.290032c -6.25  -4.45c
Writing to output.gpw (mode='')

iter: 460 03:28:26 -3870.290027c -6.03  -4.31c
iter: 461 03:43:34 -3870.290029c -5.98  -4.38c
iter: 462 03:58:50 -3870.290031c -6.14  -5.00c
iter: 463 04:14:18 -3870.290034c -6.12  -5.03c
iter: 464 04:29:26 -3870.290036c -6.38  -5.03c
Writing to output.gpw (mode='')

iter: 465 04:44:45 -3870.290045c -5.79  -5.01c
iter: 466 04:59:58 -3870.290048c -6.39  -5.02c
iter: 467 05:15:20 -3870.290055c -5.80  -5.02c
iter: 468 05:30:46 -3870.290061c -6.06  -5.02c
iter: 469 05:46:02 -3870.290070c -5.87  -4.83c
Writing to output.gpw (mode='')

iter: 470 06:01:15 -3870.290076c -6.14  -4.99c
iter: 471 06:16:41 -3870.290089c -5.82  -4.87c
iter: 472 06:31:54 -3870.290091c -6.13  -4.42c
iter: 473 06:47:19 -3870.290093c -5.87  -4.39c
iter: 474 07:02:52 -3870.290105c -5.85  -4.38c
Writing to output.gpw (mode='')

iter: 475 07:17:57 -3870.290107c -6.12  -4.26c
iter: 476 07:33:16 -3870.290166c -5.49  -4.24c
iter: 477 07:48:42 -3870.290135c -5.52  -3.94
iter: 478 08:04:04 -3870.290127c -5.52  -4.03c
iter: 479 08:19:26 -3870.290138c -5.25  -4.44c
Writing to output.gpw (mode='')

iter: 480 08:34:54 -3870.290148c -5.45  -4.81c
iter: 481 08:50:25 -3870.290159c -5.69  -4.85c
iter: 482 09:05:43 -3870.290172c -5.62  -4.91c
iter: 483 09:20:52 -3870.290177c -6.00  -4.63c
iter: 484 09:36:01 -3870.290188c -5.55  -4.62c
Writing to output.gpw (mode='')

iter: 485 09:51:04 -3870.290193c -5.71  -4.77c
iter: 486 10:06:09 -3870.290204c -5.70  -4.83c
iter: 487 10:21:25 -3870.290210c -5.89  -4.92c
iter: 488 10:36:42 -3870.290229c -5.53  -4.94c
iter: 489 10:51:39 -3870.290236c -5.90  -4.81c
Writing to output.gpw (mode='')

iter: 490 11:06:52 -3870.290286c -5.05  -4.78c
iter: 491 11:21:57 -3870.290296c -5.71  -4.73c
iter: 492 11:37:14 -3870.290304c -5.51  -4.68c
iter: 493 11:52:19 -3870.290311c -5.44  -4.64c
iter: 494 12:07:31 -3870.290346c -5.35  -4.62c
Writing to output.gpw (mode='')

iter: 495 12:22:48 -3870.290363c -5.43  -4.94c
iter: 496 12:37:52 -3870.290381c -5.76  -4.90c
iter: 497 12:53:00 -3870.290428c -5.31  -4.98c
iter: 498 13:08:00 -3870.290470c -5.25  -4.77c
iter: 499 13:23:09 -3870.290492c -5.27  -4.59c
Writing to output.gpw (mode='')

iter: 500 13:38:12 -3870.290534c -4.94  -4.56c
iter: 501 13:53:30 -3870.290557c -5.30  -4.82c
iter: 502 14:08:35 -3870.290597c -5.18  -4.70c
iter: 503 14:23:38 -3870.290630c -5.41  -4.75c
iter: 504 14:38:49 -3870.290729c -4.89  -4.68c
Writing to output.gpw (mode='')

iter: 505 14:53:56 -3870.290750c -5.19  -4.07c
iter: 506 15:09:00 -3870.290783c -5.03  -4.03c
iter: 507 15:24:02 -3870.290805c -5.06  -3.95
iter: 508 15:39:02 -3870.290840c -5.21  -3.91
iter: 509 15:53:54 -3870.290911c -4.91  -3.86
Writing to output.gpw (mode='')

iter: 510 16:09:14 -3870.290935c -4.67  -3.79
iter: 511 16:24:23 -3870.291022c -5.12  -3.89
iter: 512 16:39:22 -3870.291010c -5.16  -3.85
iter: 513 16:54:41 -3870.291011c -4.97  -3.89
iter: 514 17:09:57 -3870.291370c -4.51  -3.99
Writing to output.gpw (mode='')

iter: 515 17:25:17 -3870.291276c -4.73  -3.77
iter: 516 17:40:25 -3870.291470c -5.18  -3.87
iter: 517 17:55:37 -3870.291387c -4.75  -3.69
iter: 518 18:10:47 -3870.291439c -5.05  -3.79
iter: 519 18:26:01 -3870.291733c -4.25  -3.80
Writing to output.gpw (mode='')

iter: 520 18:41:14 -3870.291721c -4.71  -3.93
iter: 521 18:56:30 -3870.291934c -4.86  -4.07c
iter: 522 19:11:43 -3870.292377c -4.30  -3.85
iter: 523 19:27:08 -3870.292497c -4.37  -3.56
iter: 524 19:42:28 -3870.292173c -4.51  -3.50
Writing to output.gpw (mode='')

iter: 525 19:57:43 -3870.293126c -4.42  -3.58
iter: 526 20:13:02 -3870.293165c -4.39  -3.36
iter: 527 20:28:11 -3870.293065c -4.70  -3.33
iter: 528 20:43:29 -3870.292419c -4.22  -3.31
iter: 529 20:58:37 -3870.293509c -4.31  -3.49
Writing to output.gpw (mode='')

iter: 530 21:14:00 -3870.292635c -4.03  -3.36
iter: 531 21:29:27 -3870.294546c -3.53  -3.89
iter: 532 21:44:41 -3870.293388c -4.16  -3.40
iter: 533 21:59:57 -3870.293220c -4.40  -3.48
iter: 534 22:15:11 -3870.293064c -4.63  -3.53
Writing to output.gpw (mode='')

iter: 535 22:30:41 -3870.293317c -4.15  -3.70
iter: 536 22:45:50 -3870.293448c -4.19  -3.99
iter: 537 23:01:03 -3870.293590c -4.32  -3.87
iter: 538 23:16:23 -3870.293851c -4.35  -3.73
iter: 539 23:31:43 -3870.294026c -4.26  -3.59
Writing to output.gpw (mode='')

iter: 540 23:46:55 -3870.293941c -4.73  -3.51
iter: 541 00:02:20 -3870.294827c -4.33  -3.51
iter: 542 00:17:51 -3870.294679c -4.60  -3.32
iter: 543 00:33:16 -3870.295140c -4.49  -3.32
iter: 544 00:48:41 -3870.294530c -4.05  -3.27
Writing to output.gpw (mode='')

iter: 545 01:04:07 -3870.294954c -4.64  -3.40
iter: 546 01:19:31 -3870.296159c -4.16  -3.40
iter: 547 01:34:44 -3870.294782c -4.02  -3.23
iter: 548 01:49:55 -3870.295357c -3.64  -3.60
iter: 549 02:05:11 -3870.295630c -3.78  -3.77
Writing to output.gpw (mode='')

iter: 550 02:20:46 -3870.299654c -3.76  -3.69
iter: 551 02:36:16 -3870.296358c -3.98  -3.08
iter: 552 02:51:36 -3870.295684c -3.94  -3.18
iter: 553 03:06:36 -3870.296083c -3.65  -3.76
iter: 554 03:22:03 -3870.296744c -4.03  -3.87
Writing to output.gpw (mode='')

iter: 555 03:37:27 -3870.296769c -4.05  -3.67
iter: 556 03:52:43 -3870.296824c -4.24  -3.62
iter: 557 04:07:53 -3870.296618c -4.37  -3.57
iter: 558 04:23:11 -3870.297871c -4.05  -3.70
iter: 559 04:38:24 -3870.296694c -3.86  -3.37
Writing to output.gpw (mode='')

iter: 560 04:53:41 -3870.297326c -4.70  -3.62
iter: 561 05:08:56 -3870.297274c -4.69  -3.55
iter: 562 05:24:02 -3870.297347c -4.26  -3.63
iter: 563 05:39:18 -3870.297361c -4.44  -3.66
iter: 564 05:54:29 -3870.297477c -4.31  -3.80
Writing to output.gpw (mode='')

iter: 565 06:09:44 -3870.297590c -4.51  -3.82
iter: 566 06:24:59 -3870.298086c -4.23  -3.82
iter: 567 06:40:14 -3870.297870c -4.52  -3.62
iter: 568 06:55:18 -3870.300380c -3.94  -3.67
iter: 569 07:10:34 -3870.300142c -4.13  -3.14
Writing to output.gpw (mode='')

iter: 570 07:25:41 -3870.298160c -4.08  -3.13
iter: 571 07:40:58 -3870.297972c -3.92  -3.30
iter: 572 07:56:20 -3870.298894c -3.54  -3.79
iter: 573 08:11:33 -3870.299247c -3.68  -3.79
iter: 574 08:26:47 -3870.299887c -3.90  -3.58
Writing to output.gpw (mode='')

iter: 575 08:41:58 -3870.300179c -3.88  -3.39
iter: 576 08:57:11 -3870.300383c -3.99  -3.31
iter: 577 09:12:17 -3870.301317c -4.06  -3.24
iter: 578 09:27:31 -3870.300471c -4.06  -3.14
iter: 579 09:42:56 -3870.301270c -4.43  -3.16
Writing to output.gpw (mode='')

iter: 580 09:58:20 -3870.301181c -4.25  -3.11
iter: 581 10:13:24 -3870.300310c -4.25  -3.10
iter: 582 10:28:35 -3870.300964c -4.56  -3.15
iter: 583 10:43:54 -3870.299488c -3.93  -3.13
iter: 584 10:59:03 -3870.299691c -3.90  -3.51
Writing to output.gpw (mode='')

iter: 585 11:14:21 -3870.300018c -3.83  -3.71
iter: 586 11:29:24 -3870.300908c -3.96  -3.70
iter: 587 11:44:36 -3870.301620c -3.93  -3.48
iter: 588 11:59:44 -3870.301958c -3.96  -3.32
iter: 589 12:14:58 -3870.302104c -4.16  -3.25
Writing to output.gpw (mode='')

iter: 590 12:30:14 -3870.301840c -4.28  -3.20
iter: 591 12:45:40 -3870.302900c -4.35  -3.18
iter: 592 13:00:59 -3870.302574c -4.13  -3.09
iter: 593 13:16:12 -3870.300945c -4.23  -3.08
iter: 594 13:31:32 -3870.300336c -4.12  -3.18
Writing to output.gpw (mode='')

iter: 595 13:46:50 -3870.300599c -4.00  -3.35
iter: 596 14:01:59 -3870.301292c -4.49  -3.43
iter: 597 14:17:24 -3870.302422c -4.28  -3.40
iter: 598 14:32:42 -3870.302521c -4.36  -3.23
iter: 599 14:47:51 -3870.304062c -4.23  -3.20
Writing to output.gpw (mode='')

iter: 600 15:03:08 -3870.302972c -4.31  -3.07
iter: 601 15:18:12 -3870.302539c -4.57  -3.09
iter: 602 15:33:31 -3870.300902c -4.08  -3.10
iter: 603 15:48:50 -3870.301114c -3.97  -3.33
iter: 604 16:04:04 -3870.301354c -4.01  -3.43
Writing to output.gpw (mode='')

iter: 605 16:19:31 -3870.302169c -3.50  -3.79
iter: 606 16:34:47 -3870.301977c -4.09  -3.65
iter: 607 16:50:09 -3870.301748c -4.39  -3.65
iter: 608 17:05:31 -3870.301823c -4.45  -3.93
iter: 609 17:20:50 -3870.301957c -4.46  -3.98
Writing to output.gpw (mode='')

iter: 610 17:35:55 -3870.302016c -4.57  -3.93
iter: 611 17:50:58 -3870.302084c -4.61  -3.89
iter: 612 18:06:19 -3870.302220c -4.64  -3.84
iter: 613 18:21:31 -3870.302190c -4.79  -3.74
iter: 614 18:36:43 -3870.302635c -4.50  -3.76
Writing to output.gpw (mode='')

iter: 615 18:51:55 -3870.302370c -4.63  -3.52
iter: 616 19:07:09 -3870.302918c -4.50  -3.57
iter: 617 19:22:19 -3870.303415c -4.35  -3.46
iter: 618 19:37:29 -3870.303644c -4.31  -3.35
iter: 619 19:52:53 -3870.304202c -4.19  -3.29
Writing to output.gpw (mode='')

iter: 620 20:08:15 -3870.302138c -4.00  -3.21
iter: 621 20:23:23 -3870.302335c -4.21  -3.39
iter: 622 20:38:48 -3870.302384c -4.32  -3.46
iter: 623 20:54:10 -3870.302470c -4.20  -3.56
iter: 624 21:09:34 -3870.302852c -3.83  -3.84
Writing to output.gpw (mode='')

iter: 625 21:25:09 -3870.303314c -3.96  -3.81
iter: 626 21:40:32 -3870.303129c -4.24  -3.60
iter: 627 21:55:59 -3870.303652c -4.61  -3.56
iter: 628 22:11:31 -3870.302933c -4.42  -3.38
iter: 629 22:27:02 -3870.303041c -4.78  -3.48
Writing to output.gpw (mode='')

iter: 630 22:42:41 -3870.302927c -4.64  -3.50
iter: 631 22:58:03 -3870.303054c -4.51  -3.70
iter: 632 23:13:22 -3870.303207c -4.70  -3.76
iter: 633 23:28:50 -3870.303092c -4.58  -3.67
iter: 634 23:44:15 -3870.305666c -3.85  -3.86
Writing to output.gpw (mode='')

iter: 635 23:59:49 -3870.303962c -4.31  -3.21
iter: 636 00:15:15 -3870.304430c -4.58  -3.26
iter: 637 00:30:53 -3870.304071c -4.62  -3.23
iter: 638 00:46:12 -3870.304050c -4.70  -3.23
iter: 639 01:01:45 -3870.313381c -3.16  -3.23
Writing to output.gpw (mode='')

iter: 640 01:17:28 -3870.302237c -3.54  -2.85
iter: 641 01:32:49 -3870.301482c -3.53  -3.02
iter: 642 01:48:07 -3870.302422c -3.24  -3.34
iter: 643 02:03:25 -3870.303306c -3.55  -3.60
iter: 644 02:18:46 -3870.304869c -3.50  -3.77
Writing to output.gpw (mode='')

iter: 645 02:34:12 -3870.304191c -3.81  -3.41
iter: 646 02:49:23 -3870.303471c -4.39  -3.42
iter: 647 03:04:27 -3870.303633c -4.63  -3.68
iter: 648 03:19:45 -3870.303558c -4.55  -3.70
iter: 649 03:35:00 -3870.303773c -4.29  -3.98
Writing to output.gpw (mode='')

iter: 650 03:50:18 -3870.303734c -4.39  -3.95
iter: 651 04:05:26 -3870.303761c -4.75  -4.13c
iter: 652 04:20:49 -3870.303750c -4.91  -4.11c
iter: 653 04:36:07 -3870.303777c -4.93  -4.36c
iter: 654 04:51:39 -3870.303801c -5.05  -4.43c
Writing to output.gpw (mode='')

iter: 655 05:07:00 -3870.303825c -5.04  -4.44c
iter: 656 05:22:12 -3870.303852c -5.15  -4.48c
iter: 657 05:37:11 -3870.303882c -4.94  -4.46c
iter: 658 05:52:23 -3870.303899c -5.29  -4.34c
iter: 659 06:07:26 -3870.303919c -4.94  -4.38c
Writing to output.gpw (mode='')

iter: 660 06:22:59 -3870.303941c -5.22  -4.41c
iter: 661 06:38:12 -3870.303990c -4.88  -4.41c
iter: 662 06:53:25 -3870.304018c -5.10  -4.21c
iter: 663 07:08:27 -3870.304014c -4.90  -4.13c
iter: 664 07:23:36 -3870.304039c -5.09  -4.46c
Writing to output.gpw (mode='')

iter: 665 07:38:53 -3870.304059c -5.05  -4.60c
iter: 666 07:53:57 -3870.304115c -4.94  -4.59c
iter: 667 08:09:00 -3870.304129c -5.12  -4.15c
iter: 668 08:23:57 -3870.304152c -5.08  -4.10c
iter: 669 08:39:07 -3870.304175c -5.10  -4.02c
Writing to output.gpw (mode='')

iter: 670 08:54:07 -3870.304147c -5.14  -3.96
iter: 671 09:09:23 -3870.304169c -5.16  -4.13c
iter: 672 09:24:36 -3870.304198c -5.13  -4.15c
iter: 673 09:39:49 -3870.304266c -5.09  -4.12c
iter: 674 09:54:51 -3870.304216c -5.23  -3.89
Writing to output.gpw (mode='')

iter: 675 10:09:53 -3870.304222c -4.97  -4.02c
iter: 676 10:24:55 -3870.304262c -5.40  -4.28c
