
  ___ ___ ___ _ _ _  
 |   |   |_  | | | | 
 | | | | | . | | | | 
 |__ |  _|___|_____|  22.8.0
 |___|_|             

User:   vazumah@c12.hercules
Date:   Tue Feb  7 06:04:20 2023
Arch:   x86_64
Pid:    3478
CWD:    /home/vazumah/Python_projects/LiNRR/autocad_start/slab_experiments/free_slabs/Ba/bcc110/substrate
Python: 3.10.8
gpaw:   /home/vazumah/.conda/envs/GPAW/lib/python3.10/site-packages/gpaw
_gpaw:  /home/vazumah/.conda/envs/GPAW/lib/python3.10/site-packages/
        _gpaw.cpython-310-x86_64-linux-gnu.so
ase:    /home/vazumah/.conda/envs/GPAW/lib/python3.10/site-packages/ase (version 3.22.1)
numpy:  /home/vazumah/.conda/envs/GPAW/lib/python3.10/site-packages/numpy (version 1.24.1)
scipy:  /home/vazumah/.conda/envs/GPAW/lib/python3.10/site-packages/scipy (version 1.10.0)
libxc:  5.2.3
units:  Angstrom and eV
cores: 24
OpenMP: True
OMP_NUM_THREADS: 1

Reading from output.gpw
Reading input parameters:
  eigensolver: {name: dav,
                niter: 3}
  h: 0.16
  kpts: {size: [2, 1, 1]}
  maxiter: 999
  mixer: {backend: pulay,
          beta: 0.02,
          method: separate,
          nmaxold: 5,
          weight: 100}
  occupations: {name: fermi-dirac,
                width: 0.1}
  poissonsolver: {dipolelayer: xy}
  xc: BEEF-vdW

Initialize ...

species:
  Ba:
    name: Barium
    id: 3c0c69fceb001740075f2c7491402c79
    Z: 56.0
    valence: 10
    core: 46
    charge: 0.0
    file: /home/vazumah/.conda/envs/GPAW/share/gpaw/Ba.PBE.gz
    compensation charges: {type: gauss,
                           rc: 0.37,
                           lmax: 2}
    cutoffs: {filter: 2.06,
              core: 2.33}
    valence states:
      #              energy  rcut
      - 5s(2.00)   -33.644   1.164
      - 6s(2.00)    -3.229   1.164
      - 5p(6.00)   -18.744   1.164
      -  p           0.000   1.164
      -  d           0.000   1.164
      -  d          27.211   1.164
  
    # Using partial waves for Ba as LCAO basis

Reference energy: -7966002.330397  # eV

Spin-paired calculation

Convergence criteria:
 Maximum [total energy] change in last 3 cyles: 0.0005 eV / electron
 Maximum integral of absolute [dens]ity change: 0.0001 electrons / valence electron
 Maximum integral of absolute [eigenst]ate change: 4e-08 eV^2 / valence electron
 Maximum number of scf [iter]ations: 999
 (Square brackets indicate name in SCF output, whereas a 'c' in
 the SCF output indicates the quantity has converged.)

Symmetries present (total): 4

  ( 1  0  0)  ( 1  0  0)  (-1  0  0)  (-1  0  0)
  ( 1 -1  0)  ( 0  1  0)  ( 0 -1  0)  (-1  1  0)
  ( 0  0  1)  ( 0  0  1)  ( 0  0  1)  ( 0  0  1)
Note: your k-points are not as symmetric as your crystal!

2 k-points: 2 x 1 x 1 Monkhorst-Pack grid
1 k-point in the irreducible part of the Brillouin zone
       k-points in crystal coordinates                weights
   0:     0.25000000    0.00000000    0.00000000          2/2

Wave functions: Uniform real-space grid
  Kinetic energy operator: 8*3+1=25 point O(h^6) finite-difference Laplacian
  ScaLapack parameters: grid=1x1, blocksize=None
  Wavefunction extrapolation:
    Improved wavefunction reuse through dual PAW basis 

Occupation numbers: Fermi-Dirac:
  width: 0.1000  # eV
 

Eigensolver
   Davidson(niter=3) 

Densities:
  Coarse grid: 80*80*192 grid
  Fine grid: 160*160*384 grid
  Total Charge: 0.000000 

Density mixing:
  Method: separate
  Backend: pulay
  Linear mixing parameter: 0.02
  old densities: 5
  Damping of long wavelength oscillations: 100 

Hamiltonian:
  XC and Coulomb potentials evaluated on a 160*160*384 grid
  Using the BEEF-vdW Exchange-Correlation functional
  Interpolation: tri-quintic (5. degree polynomial)
  Poisson solver: FastPoissonSolver using
    Stencil: 8*3+1=25 point O(h^6) finite-difference Laplacian
    FFT axes: [0, 1]
    FST axes: [2]

Dipole correction along z-axis 

XC parameters: BEEF-vdW with 2 nearest neighbor stencil

Memory estimate:
  Process memory now: 119.23 MiB
  Calculator: 315.32 MiB
    Density: 24.81 MiB
      Arrays: 9.99 MiB
      Localized functions: 11.04 MiB
      Mixer: 3.78 MiB
    Hamiltonian: 7.36 MiB
      Arrays: 6.53 MiB
      XC: 0.00 MiB
      Poisson: 0.00 MiB
      vbar: 0.83 MiB
    Wavefunctions: 283.14 MiB
      Arrays psit_nG: 136.23 MiB
      Eigensolver: 144.96 MiB
      Projections: 0.07 MiB
      Projectors: 1.88 MiB

Total number of cores used: 24
Domain decomposition: 2 x 2 x 6

Number of atoms: 36
Number of atomic orbitals: 180
Number of bands in calculation: 180
Number of valence electrons: 360
Bands to converge: occupied

... initialized

Initializing position-dependent things.

Creating initial wave functions:
  180 bands from LCAO basis set

                                                            
                                                            
                                                            
                                                            
                                                            
                                                            
                        Ba          Ba           Ba         
                                                            
                Ba        BaBa        BaBa         Ba       
                                                            
       Ba         BaBa        BaBa        Ba                
                                                            
         Ba           Ba          Ba                        
                                                            
                                                            
                        Ba          Ba           Ba         
                                                            
                Ba        BaBa        BaBa         Ba       
                                                            
       Ba         BaBa        BaBa        Ba                
                                                            
         Ba           Ba          Ba                        
                                                            
                                                            
                                                            
                                                            
                                                            
                                                            

Positions:
   0 Ba     0.000000    3.549676   10.000000    ( 0.0000,  0.0000,  0.0000)
   1 Ba     5.020000    3.549676   10.000000    ( 0.0000,  0.0000,  0.0000)
   2 Ba    10.040000    3.549676   10.000000    ( 0.0000,  0.0000,  0.0000)
   3 Ba     2.510000    7.099352   10.000000    ( 0.0000,  0.0000,  0.0000)
   4 Ba     7.530000    7.099352   10.000000    ( 0.0000,  0.0000,  0.0000)
   5 Ba    12.550000    7.099352   10.000000    ( 0.0000,  0.0000,  0.0000)
   6 Ba     5.020000   10.649028   10.000000    ( 0.0000,  0.0000,  0.0000)
   7 Ba    10.040000   10.649028   10.000000    ( 0.0000,  0.0000,  0.0000)
   8 Ba    15.060000   10.649028   10.000000    ( 0.0000,  0.0000,  0.0000)
   9 Ba     0.000000    0.000000   13.549676    ( 0.0000,  0.0000,  0.0000)
  10 Ba     5.020000    0.000000   13.549676    ( 0.0000,  0.0000,  0.0000)
  11 Ba    10.040000    0.000000   13.549676    ( 0.0000,  0.0000,  0.0000)
  12 Ba     2.510000    3.549676   13.549676    ( 0.0000,  0.0000,  0.0000)
  13 Ba     7.530000    3.549676   13.549676    ( 0.0000,  0.0000,  0.0000)
  14 Ba    12.550000    3.549676   13.549676    ( 0.0000,  0.0000,  0.0000)
  15 Ba     5.020000    7.099352   13.549676    ( 0.0000,  0.0000,  0.0000)
  16 Ba    10.040000    7.099352   13.549676    ( 0.0000,  0.0000,  0.0000)
  17 Ba    15.060000    7.099352   13.549676    ( 0.0000,  0.0000,  0.0000)
  18 Ba     0.000000    3.549676   17.099352    ( 0.0000,  0.0000,  0.0000)
  19 Ba     5.020000    3.549676   17.099352    ( 0.0000,  0.0000,  0.0000)
  20 Ba    10.040000    3.549676   17.099352    ( 0.0000,  0.0000,  0.0000)
  21 Ba     2.510000    7.099352   17.099352    ( 0.0000,  0.0000,  0.0000)
  22 Ba     7.530000    7.099352   17.099352    ( 0.0000,  0.0000,  0.0000)
  23 Ba    12.550000    7.099352   17.099352    ( 0.0000,  0.0000,  0.0000)
  24 Ba     5.020000   10.649028   17.099352    ( 0.0000,  0.0000,  0.0000)
  25 Ba    10.040000   10.649028   17.099352    ( 0.0000,  0.0000,  0.0000)
  26 Ba    15.060000   10.649028   17.099352    ( 0.0000,  0.0000,  0.0000)
  27 Ba     0.000000    0.000000   20.649028    ( 0.0000,  0.0000,  0.0000)
  28 Ba     5.020000    0.000000   20.649028    ( 0.0000,  0.0000,  0.0000)
  29 Ba    10.040000    0.000000   20.649028    ( 0.0000,  0.0000,  0.0000)
  30 Ba     2.510000    3.549676   20.649028    ( 0.0000,  0.0000,  0.0000)
  31 Ba     7.530000    3.549676   20.649028    ( 0.0000,  0.0000,  0.0000)
  32 Ba    12.550000    3.549676   20.649028    ( 0.0000,  0.0000,  0.0000)
  33 Ba     5.020000    7.099352   20.649028    ( 0.0000,  0.0000,  0.0000)
  34 Ba    10.040000    7.099352   20.649028    ( 0.0000,  0.0000,  0.0000)
  35 Ba    15.060000    7.099352   20.649028    ( 0.0000,  0.0000,  0.0000)

Unit cell:
           periodic     x           y           z      points  spacing
  1. axis:    yes   15.060000    0.000000    0.000000    80     0.1537
  2. axis:    yes    7.530000   10.649028    0.000000    80     0.1331
  3. axis:    no     0.000000    0.000000   30.649028   192     0.1596

  Lengths:  15.060000  13.042343  30.649028
  Angles:   90.000000  90.000000  54.735610

Effective grid spacing dv^(1/3) = 0.1587

     iter     time        total  log10-change:
                         energy  eigst   dens
iter:   1 06:14:13 -6767.293314  +0.84
iter:   2 06:23:03 -6780.078871  +0.82  -1.36
iter:   3 06:31:58 -6788.736349  +0.41  -1.42
iter:   4 06:40:54 -6793.225999  +0.35  -1.57
Writing to output.gpw (mode='')

iter:   5 06:49:51 -6796.020644  -0.00  -1.76
iter:   6 06:58:41 -6797.884137  -0.01  -1.88
iter:   7 07:07:46 -6799.136474  -0.28  -1.92
iter:   8 07:16:44 -6799.601565  -0.45  -1.97
iter:   9 07:25:42 -6802.075601  -0.29  -1.99
Writing to output.gpw (mode='')

iter:  10 07:34:35 -6801.441959  -0.31  -1.78
iter:  11 07:43:33 -6800.179515  -0.67  -1.79
iter:  12 07:52:19 -6800.577963  -0.59  -2.04
iter:  13 08:01:09 -6800.939259  -0.92  -2.10
iter:  14 08:10:01 -6801.281310  -1.00  -2.06
Writing to output.gpw (mode='')

iter:  15 08:19:15 -6801.437330  -0.98  -1.99
iter:  16 08:28:23 -6801.902441  -1.08  -1.95
iter:  17 08:37:16 -6803.440030  -0.67  -1.85
iter:  18 08:46:06 -6802.641305  -0.88  -1.68
iter:  19 08:54:59 -6803.585262  -1.17  -1.66
Writing to output.gpw (mode='')

iter:  20 09:03:57 -6802.840129  -1.13  -1.59
iter:  21 09:12:45 -6800.743738  -0.92  -1.59
iter:  22 09:21:39 -6801.187011  -0.99  -1.84
iter:  23 09:30:36 -6801.281725  -1.43  -1.86
iter:  24 09:39:37 -6805.459076  -0.68  -1.88
Writing to output.gpw (mode='')

iter:  25 09:48:34 -6803.098246  -1.00  -1.57
iter:  26 09:57:24 -6801.256824  -1.58  -1.58
iter:  27 10:06:26 -6801.677926  -1.29  -1.67
iter:  28 10:15:40 -6801.469326  -1.79  -1.69
iter:  29 10:24:29 -6802.942360  -1.56  -1.73
Writing to output.gpw (mode='')

iter:  30 10:33:15 -6806.302461  -0.14  -1.67
iter:  31 10:42:02 -6805.006829  -0.19  -1.60
iter:  32 10:50:34 -6802.830154  -0.91  -1.57
iter:  33 10:59:31 -6803.713747  -1.17  -1.61
iter:  34 11:08:30 -6800.831732  -0.60  -1.58
Writing to output.gpw (mode='')

iter:  35 11:17:13 -6801.436682  -0.93  -2.07
iter:  36 11:26:14 -6801.992772  -1.62  -2.10
iter:  37 11:35:03 -6802.193656  -1.51  -2.00
iter:  38 11:43:57 -6802.760088  -1.34  -1.96
iter:  39 11:52:55 -6802.046034  -1.79  -1.87
Writing to output.gpw (mode='')

iter:  40 12:01:31 -6803.985654  -1.27  -1.88
iter:  41 12:10:19 -6800.943602  -1.10  -1.63
iter:  42 12:19:14 -6802.775456  -1.70  -1.74
iter:  43 12:27:59 -6802.734353  -1.77  -1.70
iter:  44 12:36:53 -6802.916163  -1.72  -1.68
Writing to output.gpw (mode='')

iter:  45 12:45:58 -6807.116369  -0.16  -1.66
iter:  46 12:54:58 -6803.052755  -0.48  -1.55
iter:  47 13:04:01 -6800.524376  -0.99  -1.60
iter:  48 13:13:01 -6800.534976  -0.64  -1.75
iter:  49 13:21:53 -6800.739509  -0.68  -1.86
Writing to output.gpw (mode='')

iter:  50 13:31:00 -6801.472345  -0.48  -2.04
iter:  51 13:39:59 -6803.512440  -0.52  -2.10
iter:  52 13:48:29 -6803.879152  -0.26  -1.89
iter:  53 13:57:28 -6801.877060  -1.25  -1.79
iter:  54 14:06:29 -6801.539862  -1.22  -1.92
Writing to output.gpw (mode='')

iter:  55 14:15:45 -6801.775640  -0.94  -2.33
iter:  56 14:24:40 -6801.936591  -1.48  -2.42
iter:  57 14:33:30 -6802.076726  -1.62  -2.50
iter:  58 14:42:08 -6802.251548  -1.61  -2.40
iter:  59 14:50:59 -6802.295474  -1.54  -2.25
Writing to output.gpw (mode='')

iter:  60 14:59:56 -6802.234454c -1.88  -2.19
iter:  61 15:08:47 -6802.332530c -1.81  -2.18
iter:  62 15:17:43 -6802.918255  -1.44  -2.10
iter:  63 15:26:39 -6802.540411  -1.63  -1.92
iter:  64 15:35:25 -6802.577076  -1.76  -1.93
Writing to output.gpw (mode='')

iter:  65 15:44:29 -6802.316740  -1.78  -1.92
iter:  66 15:53:23 -6802.540904  -2.02  -1.99
iter:  67 16:02:33 -6802.630860  -0.90  -1.97
iter:  68 16:11:27 -6802.469650c -1.26  -2.16
iter:  69 16:20:14 -6802.435133  -1.71  -2.23
Writing to output.gpw (mode='')

iter:  70 16:29:00 -6802.396986c -1.76  -2.25
iter:  71 16:37:45 -6802.619055  -1.43  -2.35
iter:  72 16:46:27 -6802.726339  -1.28  -2.26
iter:  73 16:55:18 -6802.890718  -1.38  -2.18
iter:  74 17:03:56 -6802.941440  -1.29  -2.09
Writing to output.gpw (mode='')

iter:  75 17:12:55 -6802.849156c -1.61  -2.03
iter:  76 17:22:07 -6802.684625  -2.03  -2.02
iter:  77 17:31:01 -6802.553312  -2.17  -2.04
iter:  78 17:39:43 -6802.927330  -2.04  -2.08
iter:  79 17:48:40 -6802.687012  -1.05  -2.03
Writing to output.gpw (mode='')

iter:  80 17:57:22 -6802.580015  -1.26  -2.20
iter:  81 18:06:49 -6802.618690c -1.52  -2.43
iter:  82 18:15:33 -6802.581915c -2.08  -2.40
iter:  83 18:24:19 -6802.592978c -2.47  -2.45
iter:  84 18:33:24 -6802.606316c -2.00  -2.45
Writing to output.gpw (mode='')

iter:  85 18:42:31 -6802.631217c -2.28  -2.43
iter:  86 18:51:18 -6802.636788c -2.06  -2.40
iter:  87 19:00:21 -6802.590171c -2.64  -2.42
iter:  88 19:09:17 -6802.610250c -2.11  -2.48
iter:  89 19:18:02 -6802.689110c -1.65  -2.51
Writing to output.gpw (mode='')

iter:  90 19:27:03 -6802.631138c -2.09  -2.47
iter:  91 19:35:54 -6802.846124  -2.06  -2.45
iter:  92 19:44:27 -6802.989914  -1.62  -2.18
iter:  93 19:53:22 -6802.932382c -1.83  -2.08
iter:  94 20:02:01 -6803.025828c -2.07  -2.05
Writing to output.gpw (mode='')

iter:  95 20:11:00 -6802.582513  -2.08  -2.00
iter:  96 20:19:50 -6802.767037  -2.87  -2.08
iter:  97 20:28:54 -6803.116001  -2.04  -2.06
iter:  98 20:37:55 -6802.318971  -1.50  -1.94
iter:  99 20:46:49 -6802.457910  -1.05  -2.11
Writing to output.gpw (mode='')

iter: 100 20:56:01 -6802.545938  -1.56  -2.33
iter: 101 21:04:57 -6802.615629c -2.27  -2.52
iter: 102 21:13:53 -6802.582355c -2.16  -2.53
iter: 103 21:22:40 -6802.600749c -2.33  -2.57
iter: 104 21:31:34 -6802.635123c -2.50  -2.55
Writing to output.gpw (mode='')

iter: 105 21:40:27 -6802.626963c -2.93  -2.50
iter: 106 21:49:31 -6802.627907c -2.47  -2.49
iter: 107 21:58:19 -6802.626180c -2.44  -2.45
iter: 108 22:06:58 -6802.615200c -3.20  -2.44
iter: 109 22:15:56 -6802.715129c -2.52  -2.48
Writing to output.gpw (mode='')

iter: 110 22:24:55 -6802.766832c -1.72  -2.24
iter: 111 22:33:49 -6802.684524c -1.95  -2.18
iter: 112 22:42:41 -6802.687633c -1.63  -2.19
iter: 113 22:51:46 -6802.712820c -1.59  -2.39
iter: 114 23:00:38 -6803.158042  -1.52  -2.37
Writing to output.gpw (mode='')

iter: 115 23:09:24 -6803.018870  -1.26  -2.08
iter: 116 23:18:15 -6802.485181  -1.37  -2.03
iter: 117 23:27:19 -6802.559533  -1.40  -2.49
iter: 118 23:35:55 -6802.594414c -2.26  -2.54
iter: 119 23:44:46 -6802.613163c -2.90  -2.60
Writing to output.gpw (mode='')

iter: 120 23:53:53 -6802.599066c -2.67  -2.60
iter: 121 00:02:40 -6802.604659c -2.52  -2.65
iter: 122 00:11:18 -6802.612038c -2.86  -2.64
iter: 123 00:20:06 -6802.613750c -3.09  -2.65
iter: 124 00:29:07 -6802.607345c -2.57  -2.64
Writing to output.gpw (mode='')

iter: 125 00:37:58 -6802.616324c -2.27  -2.73
iter: 126 00:46:50 -6802.608616c -2.94  -2.73
iter: 127 00:55:39 -6802.609674c -3.05  -2.74
iter: 128 01:04:36 -6802.636287c -2.40  -2.77
iter: 129 01:13:28 -6802.610388c -2.72  -2.75
Writing to output.gpw (mode='')

iter: 130 01:22:33 -6802.726483c -2.00  -2.82
iter: 131 01:31:36 -6802.644283c -2.36  -2.42
iter: 132 01:40:17 -6802.586992c -2.53  -2.44
iter: 133 01:49:20 -6802.609971c -2.97  -2.66
iter: 134 01:58:10 -6802.614619c -3.62  -2.67
Writing to output.gpw (mode='')

iter: 135 02:07:14 -6802.902539  -1.84  -2.67
iter: 136 02:16:03 -6802.630287  -2.21  -2.07
iter: 137 02:25:01 -6802.504805  -2.25  -2.12
iter: 138 02:33:45 -6802.511234c -1.89  -2.27
iter: 139 02:42:44 -6802.572888c -2.29  -2.35
Writing to output.gpw (mode='')

iter: 140 02:51:26 -6802.675967c -2.78  -2.40
iter: 141 03:00:09 -6802.555004c -1.93  -2.28
iter: 142 03:08:46 -6802.581372c -1.74  -2.86
iter: 143 03:17:18 -6802.601822c -2.20  -2.97
iter: 144 03:26:23 -6802.605093c -2.83  -3.08
Writing to output.gpw (mode='')

iter: 145 03:35:14 -6802.624501c -2.50  -3.10
iter: 146 03:44:26 -6802.635419c -2.32  -2.89
iter: 147 03:53:26 -6802.640008c -2.57  -2.78
iter: 148 04:02:19 -6802.616904c -2.86  -2.69
iter: 149 04:11:09 -6802.619227c -3.46  -2.74
Writing to output.gpw (mode='')

iter: 150 04:20:16 -6802.656934c -2.71  -2.72
iter: 151 04:29:19 -6802.633953c -2.79  -2.54
iter: 152 04:38:26 -6802.657600c -3.09  -2.54
iter: 153 04:47:24 -6802.637178c -2.96  -2.47
iter: 154 04:56:05 -6802.615352c -3.53  -2.47
Writing to output.gpw (mode='')

iter: 155 05:04:50 -6802.587313c -2.53  -2.51
iter: 156 05:13:44 -6802.593771c -2.22  -2.76
iter: 157 05:22:29 -6802.610829c -3.20  -2.95
iter: 158 05:31:29 -6802.622495c -3.50  -2.91
iter: 159 05:40:31 -6802.614170c -2.30  -2.82
Writing to output.gpw (mode='')

iter: 160 05:49:28 -6802.634087c -2.17  -3.10
iter: 161 05:58:27 -6802.639100c -2.22  -2.88
iter: 162 06:07:50 -6802.604888c -2.58  -2.76
iter: 163 06:17:01 -6802.607773c -3.03  -3.12
iter: 164 06:26:03 -6802.609997c -3.63  -3.16
Writing to output.gpw (mode='')

iter: 165 06:35:10 -6802.609914c -4.13  -3.14
iter: 166 06:44:09 -6802.609885c -3.67  -3.16
iter: 167 06:52:51 -6802.611118c -3.63  -3.26
iter: 168 07:01:49 -6802.614276c -3.06  -3.25
iter: 169 07:10:47 -6802.612856c -3.34  -3.14
Writing to output.gpw (mode='')

iter: 170 07:19:36 -6802.609576c -3.39  -3.14
iter: 171 07:28:34 -6802.609972c -3.66  -3.35
iter: 172 07:37:23 -6802.613878c -3.44  -3.35
iter: 173 07:46:32 -6802.612811c -3.40  -3.13
iter: 174 07:55:33 -6802.611347c -4.17  -3.10
Writing to output.gpw (mode='')

iter: 175 08:04:36 -6802.610312c -4.39  -3.12
iter: 176 08:13:21 -6802.615610c -3.78  -3.19
iter: 177 08:22:14 -6802.619536c -3.25  -2.99
iter: 178 08:31:16 -6802.609280c -3.71  -2.90
iter: 179 08:40:12 -6802.607412c -3.43  -2.99
Writing to output.gpw (mode='')

iter: 180 08:49:00 -6802.609429c -3.69  -3.40
iter: 181 08:58:14 -6802.609560c -4.13  -3.44
iter: 182 09:07:07 -6802.609907c -3.67  -3.55
iter: 183 09:15:58 -6802.610141c -3.99  -3.56
iter: 184 09:24:48 -6802.610214c -4.24  -3.56
Writing to output.gpw (mode='')

iter: 185 09:33:39 -6802.611930c -3.97  -3.62
iter: 186 09:42:32 -6802.610906c -4.10  -3.35
iter: 187 09:51:07 -6802.611094c -4.80  -3.35
iter: 188 09:59:57 -6802.610185c -4.93  -3.31
iter: 189 10:08:47 -6802.610609c -5.10  -3.34
Writing to output.gpw (mode='')

iter: 190 10:17:36 -6802.610600c -4.78  -3.34
iter: 191 10:26:26 -6802.610468c -3.87  -3.34
iter: 192 10:35:29 -6802.610536c -3.73  -3.34
iter: 193 10:44:19 -6802.610935c -4.03  -3.44
iter: 194 10:53:13 -6802.611212c -3.85  -3.40
Writing to output.gpw (mode='')

iter: 195 11:02:05 -6802.610704c -4.35  -3.35
iter: 196 11:10:57 -6802.610176c -4.72  -3.35
iter: 197 11:19:53 -6802.610293c -4.53  -3.43
iter: 198 11:28:33 -6802.611153c -4.45  -3.40
iter: 199 11:37:29 -6802.610120c -3.71  -3.33
Writing to output.gpw (mode='')

iter: 200 11:46:31 -6802.610770c -3.60  -3.46
iter: 201 11:55:15 -6802.611582c -3.77  -3.54
iter: 202 12:03:58 -6802.610522c -4.18  -3.40
iter: 203 12:12:57 -6802.609990c -4.73  -3.44
iter: 204 12:22:10 -6802.610343c -5.04  -3.55
Writing to output.gpw (mode='')

iter: 205 12:30:54 -6802.612487c -4.03  -3.54
iter: 206 12:39:54 -6802.614416c -3.59  -3.19
iter: 207 12:49:08 -6802.616019c -3.62  -3.08
iter: 208 12:58:12 -6802.612850c -3.97  -3.00
iter: 209 13:06:55 -6802.611308c -4.67  -3.00
Writing to output.gpw (mode='')

iter: 210 13:16:00 -6802.614114c -4.45  -3.04
iter: 211 13:24:58 -6802.615020c -3.91  -2.98
iter: 212 13:34:16 -6802.606479c -3.24  -2.93
iter: 213 13:43:01 -6802.610019c -2.79  -3.30
iter: 214 13:52:06 -6802.612321c -2.89  -3.46
Writing to output.gpw (mode='')

iter: 215 14:01:06 -6802.610516c -3.48  -3.34
iter: 216 14:10:07 -6802.609997c -3.96  -3.40
iter: 217 14:19:02 -6802.610553c -3.78  -3.67
iter: 218 14:28:15 -6802.610806c -3.86  -3.62
iter: 219 14:37:12 -6802.611273c -3.83  -3.53
Writing to output.gpw (mode='')

iter: 220 14:46:28 -6802.611307c -4.11  -3.40
iter: 221 14:55:19 -6802.612352c -3.97  -3.33
iter: 222 15:04:04 -6802.610249c -4.77  -3.20
iter: 223 15:12:59 -6802.610251c -5.21  -3.28
iter: 224 15:22:00 -6802.609778c -4.81  -3.29
Writing to output.gpw (mode='')

iter: 225 15:31:01 -6802.609874c -4.43  -3.40
iter: 226 15:39:43 -6802.610144c -3.94  -3.44
iter: 227 15:48:40 -6802.610223c -4.07  -3.70
iter: 228 15:57:44 -6802.610718c -4.09  -3.75
iter: 229 16:06:37 -6802.611225c -4.03  -3.59
Writing to output.gpw (mode='')

iter: 230 16:15:44 -6802.610170c -4.86  -3.47
iter: 231 16:24:51 -6802.612110c -4.13  -3.55
iter: 232 16:33:43 -6802.611813c -4.15  -3.25
iter: 233 16:42:37 -6802.609473c -3.90  -3.23
iter: 234 16:51:26 -6802.609818c -3.74  -3.62
Writing to output.gpw (mode='')

iter: 235 17:00:26 -6802.610798c -3.71  -3.67
iter: 236 17:09:13 -6802.611178c -3.50  -3.58
iter: 237 17:18:07 -6802.610100c -4.48  -3.47
iter: 238 17:26:48 -6802.610063c -4.67  -3.66
iter: 239 17:35:49 -6802.610123c -4.61  -3.73
Writing to output.gpw (mode='')

iter: 240 17:44:52 -6802.610143c -5.11  -3.80
iter: 241 17:53:44 -6802.610192c -5.20  -3.84
iter: 242 18:02:51 -6802.610572c -4.76  -3.88
iter: 243 18:11:47 -6802.611067c -4.18  -3.60
iter: 244 18:20:48 -6802.610173c -4.70  -3.44
Writing to output.gpw (mode='')

iter: 245 18:29:53 -6802.610023c -4.98  -3.56
iter: 246 18:38:45 -6802.610038c -4.50  -3.66
iter: 247 18:47:21 -6802.610108c -4.86  -3.73
iter: 248 18:56:00 -6802.610228c -5.56  -3.80
iter: 249 19:04:54 -6802.610275c -5.95  -3.79
Writing to output.gpw (mode='')

iter: 250 19:13:57 -6802.610229c -5.67  -3.76
iter: 251 19:22:45 -6802.610158c -5.36  -3.78
iter: 252 19:31:36 -6802.610156c -4.74  -3.96
iter: 253 19:40:54 -6802.610211c -4.63  -4.18c
iter: 254 19:49:57 -6802.610261c -4.58  -4.25c
Writing to output.gpw (mode='')

iter: 255 19:58:46 -6802.610271c -4.96  -4.13c
iter: 256 20:07:25 -6802.610328c -4.92  -4.07c
iter: 257 20:16:28 -6802.610351c -4.88  -3.93
iter: 258 20:25:06 -6802.610412c -5.01  -3.85
iter: 259 20:34:03 -6802.610512c -4.76  -3.78
Writing to output.gpw (mode='')

iter: 260 20:43:19 -6802.610447c -4.83  -3.68
iter: 261 20:52:31 -6802.610567c -5.06  -3.64
iter: 262 21:01:43 -6802.610419c -5.13  -3.57
iter: 263 21:10:48 -6802.610715c -5.17  -3.56
iter: 264 21:19:37 -6802.610818c -4.66  -3.46
Writing to output.gpw (mode='')

iter: 265 21:28:29 -6802.609915c -4.65  -3.42
iter: 266 21:37:07 -6802.610292c -5.28  -3.60
iter: 267 21:45:45 -6802.610185c -5.70  -3.58
iter: 268 21:54:32 -6802.610060c -4.92  -3.61
iter: 269 22:03:52 -6802.610004c -4.83  -3.68
Writing to output.gpw (mode='')

iter: 270 22:13:00 -6802.610125c -4.79  -3.79
iter: 271 22:21:56 -6802.610134c -5.00  -3.84
iter: 272 22:30:43 -6802.610178c -4.58  -4.05c
iter: 273 22:39:36 -6802.610226c -4.78  -4.05c
iter: 274 22:48:46 -6802.610365c -4.53  -4.07c
Writing to output.gpw (mode='')

iter: 275 22:57:38 -6802.610510c -4.35  -3.91
iter: 276 23:06:29 -6802.610638c -4.38  -3.76
iter: 277 23:15:28 -6802.610509c -4.49  -3.67
iter: 278 23:24:30 -6802.610448c -5.11  -3.63
iter: 279 23:33:39 -6802.610520c -5.02  -3.60
Writing to output.gpw (mode='')

iter: 280 23:42:42 -6802.610527c -5.09  -3.57
iter: 281 23:51:25 -6802.610951c -4.68  -3.55
iter: 282 00:00:10 -6802.609965c -4.54  -3.42
iter: 283 00:09:01 -6802.609914c -4.37  -3.59
iter: 284 00:18:01 -6802.610190c -4.84  -3.76
Writing to output.gpw (mode='')

iter: 285 00:26:51 -6802.610151c -5.34  -3.78
iter: 286 00:35:41 -6802.611078c -3.97  -3.88
iter: 287 00:44:26 -6802.610688c -4.04  -3.55
iter: 288 00:53:21 -6802.610270c -5.01  -3.53
iter: 289 01:02:00 -6802.610044c -4.52  -3.61
Writing to output.gpw (mode='')

iter: 290 01:10:42 -6802.610142c -4.42  -4.00
iter: 291 01:19:49 -6802.610195c -4.90  -4.11c
iter: 292 01:28:52 -6802.610224c -5.25  -4.18c
iter: 293 01:37:42 -6802.610366c -4.81  -4.16c
iter: 294 01:46:25 -6802.610347c -4.75  -3.90
Writing to output.gpw (mode='')

iter: 295 01:55:28 -6802.610190c -5.12  -3.86
iter: 296 02:04:18 -6802.610219c -5.09  -4.07c
iter: 297 02:13:23 -6802.610289c -4.51  -4.11c
iter: 298 02:22:20 -6802.610313c -4.62  -4.10c
iter: 299 02:31:06 -6802.610365c -4.93  -3.99
Writing to output.gpw (mode='')

iter: 300 02:39:55 -6802.610353c -4.83  -3.89
iter: 301 02:48:52 -6802.610554c -4.83  -3.83
iter: 302 02:58:00 -6802.610580c -4.70  -3.64
iter: 303 03:07:08 -6802.610510c -4.98  -3.58
iter: 304 03:16:02 -6802.610235c -5.37  -3.55
Writing to output.gpw (mode='')

iter: 305 03:24:42 -6802.610176c -5.40  -3.63
iter: 306 03:33:30 -6802.610303c -5.86  -3.69
iter: 307 03:42:23 -6802.610294c -4.67  -3.67
iter: 308 03:51:02 -6802.610334c -4.50  -3.78
iter: 309 03:59:39 -6802.610217c -4.80  -3.81
Writing to output.gpw (mode='')

iter: 310 04:08:29 -6802.610195c -5.07  -3.97
iter: 311 04:17:23 -6802.610204c -4.94  -4.08c
iter: 312 04:26:24 -6802.610248c -4.88  -4.30c
iter: 313 04:35:29 -6802.610253c -4.91  -4.31c
iter: 314 04:44:41 -6802.610290c -5.31  -4.21c
Writing to output.gpw (mode='')

iter: 315 04:54:03 -6802.610284c -5.12  -4.05c
iter: 316 05:02:48 -6802.610277c -5.59  -3.97
iter: 317 05:11:58 -6802.610261c -5.85  -3.93
iter: 318 05:20:59 -6802.610215c -5.67  -3.92
iter: 319 05:29:52 -6802.610258c -5.47  -4.04c
Writing to output.gpw (mode='')

iter: 320 05:38:51 -6802.610229c -6.09  -4.03c
iter: 321 05:47:57 -6802.610897c -4.35  -4.05c
iter: 322 05:57:09 -6802.610530c -4.77  -3.40
iter: 323 06:05:58 -6802.610105c -4.99  -3.40
iter: 324 06:15:11 -6802.609969c -4.61  -3.50
Writing to output.gpw (mode='')

iter: 325 06:24:09 -6802.609952c -4.47  -3.62
iter: 326 06:33:01 -6802.610057c -4.18  -3.79
iter: 327 06:41:52 -6802.610323c -4.07  -4.05c
iter: 328 06:50:46 -6802.610427c -4.06  -4.00
iter: 329 06:59:51 -6802.610312c -4.66  -3.82
Writing to output.gpw (mode='')

iter: 330 07:08:46 -6802.610191c -4.95  -3.83
iter: 331 07:17:41 -6802.610218c -5.03  -4.10c
iter: 332 07:26:34 -6802.610258c -4.87  -4.10c
iter: 333 07:35:41 -6802.610256c -5.04  -4.17c
iter: 334 07:44:28 -6802.610220c -5.34  -4.14c
Writing to output.gpw (mode='')

iter: 335 07:53:34 -6802.610226c -5.50  -4.36c
iter: 336 08:02:40 -6802.610224c -6.06  -4.36c
iter: 337 08:11:41 -6802.610225c -6.37  -4.37c
iter: 338 08:20:34 -6802.610250c -5.63  -4.46c
iter: 339 08:29:37 -6802.610251c -5.60  -4.27c
Writing to output.gpw (mode='')

iter: 340 08:38:45 -6802.610270c -5.56  -4.21c
iter: 341 08:47:52 -6802.610218c -5.79  -4.06c
iter: 342 08:56:43 -6802.610219c -6.16  -4.20c
iter: 343 09:05:38 -6802.610231c -6.53  -4.24c
iter: 344 09:14:38 -6802.610302c -5.06  -4.24c
Writing to output.gpw (mode='')

iter: 345 09:23:16 -6802.610294c -5.25  -3.92
iter: 346 09:32:07 -6802.610302c -5.57  -3.90
iter: 347 09:40:56 -6802.610266c -5.81  -3.88
iter: 348 09:49:48 -6802.610208c -5.45  -3.88
iter: 349 09:58:40 -6802.610216c -5.11  -4.14c
Writing to output.gpw (mode='')

iter: 350 10:07:28 -6802.610238c -5.08  -4.37c
iter: 351 10:16:20 -6802.610242c -5.18  -4.38c
iter: 352 10:25:12 -6802.610231c -6.10  -4.35c
iter: 353 10:34:13 -6802.610238c -5.87  -4.36c
iter: 354 10:43:10 -6802.610236c -5.82  -4.36c
Writing to output.gpw (mode='')

iter: 355 10:52:14 -6802.610224c -5.88  -4.33c
iter: 356 11:01:08 -6802.610227c -5.97  -4.50c
iter: 357 11:10:02 -6802.610230c -6.53  -4.56c
iter: 358 11:18:41 -6802.610240c -6.25  -4.56c
iter: 359 11:27:33 -6802.610231c -6.37  -4.29c
Writing to output.gpw (mode='')

iter: 360 11:36:26 -6802.610259c -5.94  -4.34c
iter: 361 11:45:14 -6802.610250c -6.03  -4.07c
iter: 362 11:53:41 -6802.610259c -6.20  -4.04c
iter: 363 12:02:15 -6802.610328c -5.38  -3.98
iter: 364 12:11:05 -6802.610237c -5.83  -3.85
Writing to output.gpw (mode='')

iter: 365 12:20:02 -6802.610221c -5.65  -3.92
iter: 366 12:28:49 -6802.610303c -4.64  -4.01c
iter: 367 12:37:44 -6802.610806c -4.24  -4.01c
iter: 368 12:46:52 -6802.610406c -4.47  -3.63
iter: 369 12:55:38 -6802.610115c -4.80  -3.64
Writing to output.gpw (mode='')

iter: 370 13:04:25 -6802.610156c -4.69  -4.03c
iter: 371 13:13:30 -6802.610205c -5.25  -4.14c
iter: 372 13:22:08 -6802.610232c -5.18  -4.23c
iter: 373 13:31:07 -6802.610240c -5.24  -4.31c
iter: 374 13:40:06 -6802.610255c -5.67  -4.24c
Writing to output.gpw (mode='')

iter: 375 13:49:09 -6802.610346c -4.95  -4.12c
iter: 376 13:58:12 -6802.610482c -4.61  -3.92
iter: 377 14:07:25 -6802.610513c -4.69  -3.73
iter: 378 14:16:17 -6802.610269c -5.45  -3.68
iter: 379 14:25:03 -6802.610174c -5.15  -3.76
Writing to output.gpw (mode='')

iter: 380 14:33:56 -6802.610259c -5.74  -4.16c
iter: 381 14:43:17 -6802.610260c -6.30  -4.05c
iter: 382 14:52:16 -6802.610289c -5.94  -4.03c
iter: 383 15:01:08 -6802.610209c -5.56  -3.93
iter: 384 15:10:09 -6802.610244c -5.21  -4.09c
Writing to output.gpw (mode='')

iter: 385 15:19:33 -6802.610228c -5.71  -4.41c
iter: 386 15:28:27 -6802.610234c -6.17  -4.77c
iter: 387 15:37:15 -6802.610232c -6.42  -4.68c
iter: 388 15:46:21 -6802.610230c -6.23  -4.65c
iter: 389 15:55:09 -6802.610231c -6.56  -4.85c
Writing to output.gpw (mode='')

iter: 390 16:04:09 -6802.610231c -6.88  -4.87c
iter: 391 16:12:59 -6802.610231c -6.89  -4.90c
iter: 392 16:21:51 -6802.610235c -6.40  -4.94c
iter: 393 16:30:35 -6802.610232c -6.71  -4.63c
iter: 394 16:39:19 -6802.610254c -6.07  -4.66c
Writing to output.gpw (mode='')

iter: 395 16:48:26 -6802.610252c -5.97  -4.21c
iter: 396 16:57:15 -6802.610242c -6.48  -4.17c
iter: 397 17:06:01 -6802.610259c -6.40  -4.18c
iter: 398 17:14:48 -6802.610253c -6.18  -4.09c
iter: 399 17:23:37 -6802.610300c -5.82  -4.07c
Writing to output.gpw (mode='')

iter: 400 17:32:38 -6802.610306c -5.57  -3.87
iter: 401 17:41:20 -6802.610317c -5.81  -3.84
iter: 402 17:50:07 -6802.610380c -5.46  -3.81
iter: 403 17:58:55 -6802.610157c -4.97  -3.73
iter: 404 18:07:47 -6802.610172c -4.87  -3.97
Writing to output.gpw (mode='')

iter: 405 18:16:50 -6802.610223c -4.74  -4.33c
iter: 406 18:25:37 -6802.610243c -5.14  -4.32c
iter: 407 18:34:14 -6802.610270c -4.94  -4.31c
iter: 408 18:42:52 -6802.610247c -5.31  -4.21c
iter: 409 18:51:54 -6802.610242c -5.98  -4.24c
Writing to output.gpw (mode='')

iter: 410 19:00:41 -6802.610227c -6.07  -4.25c
iter: 411 19:09:25 -6802.610229c -5.76  -4.44c
iter: 412 19:18:20 -6802.610233c -5.79  -4.75c
iter: 413 19:27:31 -6802.610236c -6.01  -4.72c
iter: 414 19:36:42 -6802.610242c -5.77  -4.61c
Writing to output.gpw (mode='')

iter: 415 19:45:25 -6802.610237c -6.25  -4.47c
iter: 416 19:54:08 -6802.610231c -6.66  -4.46c
iter: 417 20:02:52 -6802.610230c -6.65  -4.55c
iter: 418 20:11:54 -6802.610232c -7.00  -4.64c
iter: 419 20:20:59 -6802.610232c -6.57  -4.64c
Writing to output.gpw (mode='')

iter: 420 20:30:12 -6802.610235c -6.13  -4.89c
iter: 421 20:39:13 -6802.610234c -6.42  -4.80c
iter: 422 20:48:09 -6802.610236c -6.58  -4.74c
iter: 423 20:57:03 -6802.610235c -6.68  -4.64c
iter: 424 21:05:56 -6802.610236c -7.05  -4.61c
Writing to output.gpw (mode='')

iter: 425 21:14:56 -6802.610234c -7.07  -4.58c
iter: 426 21:24:05 -6802.610232c -6.89  -4.59c
iter: 427 21:33:16 -6802.610232c -6.36  -4.72c
iter: 428 21:42:11 -6802.610233c -6.29  -4.83c
iter: 429 21:50:55 -6802.610233c -6.67  -4.85c
Writing to output.gpw (mode='')

iter: 430 21:59:56 -6802.610233c -7.28  -4.88c
iter: 431 22:08:51 -6802.610233c -7.18  -4.94c
iter: 432 22:17:56 -6802.610233c -6.96  -4.96c
iter: 433 22:26:44 -6802.610233c -7.45c -4.94c

Converged after 433 iterations.

Dipole moment: (-70.114156, -47.146767, -0.000387) |e|*Ang

Energy contributions relative to reference atoms: (reference = -7966002.330397)

Kinetic:       +135.051508
Potential:      -52.178026
External:        +0.000000
XC:            -6878.602185
Entropy (-ST):   -0.000000
Local:           -6.881530
--------------------------
Free energy:   -6802.610233
Extrapolated:  -6802.610233

Dipole-layer corrected work functions: -inf, -inf eV

 Band  Eigenvalues  Occupancy
    0    -31.87584    2.00000
    1    -31.87554    2.00000
    2    -31.86686    2.00000
    3    -31.86656    2.00000
    4    -31.86118    2.00000
    5    -31.86090    2.00000
    6    -31.85993    2.00000
    7    -31.85961    2.00000
    8    -31.85785    2.00000
    9    -31.85754    2.00000
   10    -31.85460    2.00000
   11    -31.85430    2.00000
   12    -31.85214    2.00000
   13    -31.85183    2.00000
   14    -31.84680    2.00000
   15    -31.84650    2.00000
   16    -31.84554    2.00000
   17    -31.84522    2.00000
   18    -31.43203    2.00000
   19    -31.42031    2.00000
   20    -31.41391    2.00000
   21    -31.41159    2.00000
   22    -31.40930    2.00000
   23    -31.40878    2.00000
   24    -31.40653    2.00000
   25    -31.40530    2.00000
   26    -31.40251    2.00000
   27    -31.40101    2.00000
   28    -31.40026    2.00000
   29    -31.40013    2.00000
   30    -31.39898    2.00000
   31    -31.39695    2.00000
   32    -31.39634    2.00000
   33    -31.39170    2.00000
   34    -31.38601    2.00000
   35    -31.38438    2.00000
   36    -17.23060    2.00000
   37    -17.22690    2.00000
   38    -17.22602    2.00000
   39    -17.22388    2.00000
   40    -17.22242    2.00000
   41    -17.22201    2.00000
   42    -17.22069    2.00000
   43    -17.22025    2.00000
   44    -17.20661    2.00000
   45    -17.20620    2.00000
   46    -17.19652    2.00000
   47    -17.19520    2.00000
   48    -17.19345    2.00000
   49    -17.18984    2.00000
   50    -17.18935    2.00000
   51    -17.18671    2.00000
   52    -17.18553    2.00000
   53    -17.18256    2.00000
   54    -17.17632    2.00000
   55    -17.17543    2.00000
   56    -17.17438    2.00000
   57    -17.17401    2.00000
   58    -17.16786    2.00000
   59    -17.16589    2.00000
   60    -17.16422    2.00000
   61    -17.16378    2.00000
   62    -17.16373    2.00000
   63    -17.16154    2.00000
   64    -17.15922    2.00000
   65    -17.15750    2.00000
   66    -17.15284    2.00000
   67    -17.15252    2.00000
   68    -17.10960    2.00000
   69    -17.10713    2.00000
   70    -17.09448    2.00000
   71    -17.09149    2.00000
   72    -17.08837    2.00000
   73    -17.08710    2.00000
   74    -17.07454    2.00000
   75    -17.07423    2.00000
   76    -17.03382    2.00000
   77    -17.03351    2.00000
   78    -16.96395    2.00000
   79    -16.96221    2.00000
   80    -16.96154    2.00000
   81    -16.96020    2.00000
   82    -16.94911    2.00000
   83    -16.94620    2.00000
   84    -16.94124    2.00000
   85    -16.93838    2.00000
   86    -16.93352    2.00000
   87    -16.93103    2.00000
   88    -16.91557    2.00000
   89    -16.91526    2.00000
   90    -16.83746    2.00000
   91    -16.83711    2.00000
   92    -16.83508    2.00000
   93    -16.83344    2.00000
   94    -16.80296    2.00000
   95    -16.79181    2.00000
   96    -16.79168    2.00000
   97    -16.79122    2.00000
   98    -16.79038    2.00000
   99    -16.78507    2.00000
  100    -16.78219    2.00000
  101    -16.77891    2.00000
  102    -16.77733    2.00000
  103    -16.77661    2.00000
  104    -16.77117    2.00000
  105    -16.73679    2.00000
  106    -16.73613    2.00000
  107    -16.73601    2.00000
  108    -16.71864    2.00000
  109    -16.71824    2.00000
  110    -16.71584    2.00000
  111    -16.71428    2.00000
  112    -16.71138    2.00000
  113    -16.68420    2.00000
  114    -16.68298    2.00000
  115    -16.66363    2.00000
  116    -16.65915    2.00000
  117    -16.65737    2.00000
  118    -16.64171    2.00000
  119    -16.63632    2.00000
  120    -16.62873    2.00000
  121    -16.62157    2.00000
  122    -16.61969    2.00000
  123    -16.60972    2.00000
  124    -16.60166    2.00000
  125    -16.59946    2.00000
  126    -16.59680    2.00000
  127    -16.58809    2.00000
  128    -16.58056    2.00000
  129    -16.57539    2.00000
  130    -16.56932    2.00000
  131    -16.56576    2.00000
  132    -16.56243    2.00000
  133    -16.54097    2.00000
  134    -16.53822    2.00000
  135    -16.53314    2.00000
  136    -16.52856    2.00000
  137    -16.52486    2.00000
  138    -16.52443    2.00000
  139    -16.52043    2.00000
  140    -16.51493    2.00000
  141    -16.50790    2.00000
  142    -16.50023    2.00000
  143    -16.49618    2.00000
  144     -5.00651    2.00000
  145     -4.59147    2.00000
  146     -4.33779    2.00000
  147     -3.99417    2.00000
  148     -3.98788    2.00000
  149     -3.95625    2.00000
  150     -3.80113    2.00000
  151     -3.66986    2.00000
  152     -3.65934    2.00000
  153     -3.47918    2.00000
  154     -3.46441    2.00000
  155     -3.45636    2.00000
  156     -3.45071    2.00000
  157     -3.44359    2.00000
  158     -3.40531    2.00000
  159     -3.38968    2.00000
  160     -3.21966    2.00000
  161     -3.18256    2.00000
  162     -3.11253    2.00000
  163     -3.07145    2.00000
  164     -3.00037    2.00000
  165     -2.99013    2.00000
  166     -2.91066    2.00000
  167     -2.86973    2.00000
  168     -2.86260    2.00000
  169     -2.83318    2.00000
  170     -2.82363    2.00000
  171     -2.76904    2.00000
  172     -2.75511    2.00000
  173     -2.72285    2.00000
  174     -2.71525    2.00000
  175     -2.71230    2.00000
  176     -2.71016    2.00000
  177     -2.70421    2.00000
  178     -2.52874    2.00000
  179     -2.50913    2.00000

Fermi level: inf

Writing to output.gpw (mode='')


Forces in eV/Ang:
  0 Ba    0.00000   -0.00023    0.04763
  1 Ba   -0.00468   -0.00070    0.04798
  2 Ba    0.00468   -0.00070    0.04798
  3 Ba    0.00468    0.00070    0.04798
  4 Ba    0.00000    0.00023    0.04763
  5 Ba   -0.00468    0.00070    0.04798
  6 Ba   -0.00117    0.00000    0.04199
  7 Ba    0.00117    0.00000    0.04199
  8 Ba    0.00000    0.00000    0.04150
  9 Ba    0.00000    0.00000   -0.04926
 10 Ba   -0.00430    0.00000   -0.04261
 11 Ba    0.00430    0.00000   -0.04261
 12 Ba    0.00537   -0.00077   -0.05225
 13 Ba    0.00000   -0.00159   -0.04879
 14 Ba   -0.00537   -0.00077   -0.05225
 15 Ba   -0.00537    0.00077   -0.05225
 16 Ba    0.00537    0.00077   -0.05225
 17 Ba    0.00000    0.00159   -0.04879
 18 Ba    0.00000   -0.00141    0.04984
 19 Ba   -0.00513   -0.00082    0.05155
 20 Ba    0.00513   -0.00082    0.05155
 21 Ba    0.00513    0.00082    0.05155
 22 Ba    0.00000    0.00141    0.04984
 23 Ba   -0.00513    0.00082    0.05155
 24 Ba   -0.00488    0.00000    0.04369
 25 Ba    0.00488    0.00000    0.04369
 26 Ba    0.00000    0.00000    0.04678
 27 Ba    0.00000    0.00000   -0.04177
 28 Ba   -0.00332    0.00000   -0.04141
 29 Ba    0.00332    0.00000   -0.04141
 30 Ba    0.00360    0.00023   -0.04786
 31 Ba    0.00000   -0.00216   -0.04708
 32 Ba   -0.00360    0.00023   -0.04786
 33 Ba   -0.00360   -0.00023   -0.04786
 34 Ba    0.00360   -0.00023   -0.04786
 35 Ba    0.00000    0.00216   -0.04708

System changes: positions 

Initializing position-dependent things.

Density initialized from wave functions
                                                            
                                                            
                                                            
                                                            
                                                            
                                                            
                        Ba          Ba           Ba         
                                                            
                Ba        BaBa        BaBa         Ba       
                                                            
       Ba         BaBa        BaBa        Ba                
                                                            
         Ba           Ba          Ba                        
                                                            
                                                            
                        Ba          Ba           Ba         
                                                            
                Ba        BaBa        BaBa         Ba       
                                                            
       Ba         BaBa        BaBa        Ba                
                                                            
         Ba           Ba          Ba                        
                                                            
                                                            
                                                            
                                                            
                                                            
                                                            

Positions:
   0 Ba     0.000000    3.549673   10.000680    ( 0.0000,  0.0000,  0.0000)
   1 Ba     5.019933    3.549666   10.000685    ( 0.0000,  0.0000,  0.0000)
   2 Ba    10.040067    3.549666   10.000685    ( 0.0000,  0.0000,  0.0000)
   3 Ba     2.510067    7.099362   10.000685    ( 0.0000,  0.0000,  0.0000)
   4 Ba     7.530000    7.099355   10.000680    ( 0.0000,  0.0000,  0.0000)
   5 Ba    12.549933    7.099362   10.000685    ( 0.0000,  0.0000,  0.0000)
   6 Ba     5.019983   10.649028   10.000600    ( 0.0000,  0.0000,  0.0000)
   7 Ba    10.040017   10.649028   10.000600    ( 0.0000,  0.0000,  0.0000)
   8 Ba    15.060000   10.649028   10.000593    ( 0.0000,  0.0000,  0.0000)
   9 Ba     0.000000    0.000000   13.548972    ( 0.0000,  0.0000,  0.0000)
  10 Ba     5.019939    0.000000   13.549067    ( 0.0000,  0.0000,  0.0000)
  11 Ba    10.040061    0.000000   13.549067    ( 0.0000,  0.0000,  0.0000)
  12 Ba     2.510077    3.549665   13.548930    ( 0.0000,  0.0000,  0.0000)
  13 Ba     7.530000    3.549653   13.548979    ( 0.0000,  0.0000,  0.0000)
  14 Ba    12.549923    3.549665   13.548930    ( 0.0000,  0.0000,  0.0000)
  15 Ba     5.019923    7.099363   13.548930    ( 0.0000,  0.0000,  0.0000)
  16 Ba    10.040077    7.099363   13.548930    ( 0.0000,  0.0000,  0.0000)
  17 Ba    15.060000    7.099375   13.548979    ( 0.0000,  0.0000,  0.0000)
  18 Ba     0.000000    3.549656   17.100064    ( 0.0000,  0.0000,  0.0000)
  19 Ba     5.019927    3.549664   17.100088    ( 0.0000,  0.0000,  0.0000)
  20 Ba    10.040073    3.549664   17.100088    ( 0.0000,  0.0000,  0.0000)
  21 Ba     2.510073    7.099364   17.100088    ( 0.0000,  0.0000,  0.0000)
  22 Ba     7.530000    7.099372   17.100064    ( 0.0000,  0.0000,  0.0000)
  23 Ba    12.549927    7.099364   17.100088    ( 0.0000,  0.0000,  0.0000)
  24 Ba     5.019930   10.649028   17.099976    ( 0.0000,  0.0000,  0.0000)
  25 Ba    10.040070   10.649028   17.099976    ( 0.0000,  0.0000,  0.0000)
  26 Ba    15.060000   10.649028   17.100020    ( 0.0000,  0.0000,  0.0000)
  27 Ba     0.000000    0.000000   20.648431    ( 0.0000,  0.0000,  0.0000)
  28 Ba     5.019953    0.000000   20.648437    ( 0.0000,  0.0000,  0.0000)
  29 Ba    10.040047    0.000000   20.648437    ( 0.0000,  0.0000,  0.0000)
  30 Ba     2.510051    3.549679   20.648344    ( 0.0000,  0.0000,  0.0000)
  31 Ba     7.530000    3.549645   20.648356    ( 0.0000,  0.0000,  0.0000)
  32 Ba    12.549949    3.549679   20.648344    ( 0.0000,  0.0000,  0.0000)
  33 Ba     5.019949    7.099349   20.648344    ( 0.0000,  0.0000,  0.0000)
  34 Ba    10.040051    7.099349   20.648344    ( 0.0000,  0.0000,  0.0000)
  35 Ba    15.060000    7.099383   20.648356    ( 0.0000,  0.0000,  0.0000)

Unit cell:
           periodic     x           y           z      points  spacing
  1. axis:    yes   15.060000    0.000000    0.000000    80     0.1537
  2. axis:    yes    7.530000   10.649028    0.000000    80     0.1331
  3. axis:    no     0.000000    0.000000   30.649028   192     0.1596

  Lengths:  15.060000  13.042343  30.649028
  Angles:   90.000000  90.000000  54.735610

Effective grid spacing dv^(1/3) = 0.1587

     iter     time        total  log10-change:
                         energy  eigst   dens
iter:   1 22:36:22 -6802.611451  -4.36
iter:   2 22:45:03 -6802.611484  -4.65  -4.04c
iter:   3 22:53:59 -6802.611729c -4.52  -3.91
iter:   4 23:02:46 -6802.611662c -4.56  -3.62
Writing to output.gpw (mode='')

iter:   5 23:11:41 -6802.611388c -5.23  -3.57
iter:   6 23:20:44 -6802.611362c -5.41  -3.69
iter:   7 23:29:33 -6802.611332c -4.79  -3.72
iter:   8 23:38:17 -6802.611359c -4.73  -3.84
iter:   9 23:46:59 -6802.612157c -4.40  -3.90
Writing to output.gpw (mode='')

iter:  10 23:55:50 -6802.611719c -4.35  -3.54
iter:  11 00:04:48 -6802.612926c -4.38  -3.55
iter:  12 00:13:50 -6802.613411c -3.85  -3.28
iter:  13 00:22:47 -6802.612974c -4.16  -3.22
iter:  14 00:31:52 -6802.611688c -4.78  -3.17
Writing to output.gpw (mode='')

iter:  15 00:40:57 -6802.611593c -5.02  -3.24
iter:  16 00:49:42 -6802.611758c -5.22  -3.27
iter:  17 00:58:12 -6802.611144c -5.01  -3.27
iter:  18 01:07:01 -6802.617039c -3.23  -3.35
iter:  19 01:15:49 -6802.613388c -3.54  -3.08
Writing to output.gpw (mode='')

iter:  20 01:24:48 -6802.610654c -4.14  -3.11
iter:  21 01:33:58 -6802.610273c -3.92  -3.28
iter:  22 01:42:55 -6802.610675c -3.98  -3.40
iter:  23 01:51:59 -6802.612735c -3.42  -3.50
iter:  24 02:00:42 -6802.612173c -3.55  -3.50
Writing to output.gpw (mode='')

iter:  25 02:09:27 -6802.611696c -4.50  -3.47
iter:  26 02:18:09 -6802.612494c -4.46  -3.52
iter:  27 02:26:59 -6802.612735c -3.97  -3.37
iter:  28 02:35:43 -6802.612672c -4.26  -3.32
iter:  29 02:44:31 -6802.611690c -4.69  -3.28
Writing to output.gpw (mode='')

iter:  30 02:53:24 -6802.611678c -5.29  -3.33
iter:  31 03:02:21 -6802.612071c -5.08  -3.33
iter:  32 03:11:10 -6802.612479c -4.73  -3.31
iter:  33 03:20:07 -6802.610698c -3.97  -3.24
iter:  34 03:29:01 -6802.611568c -3.55  -3.60
Writing to output.gpw (mode='')

iter:  35 03:37:54 -6802.611340c -4.14  -3.74
iter:  36 03:46:49 -6802.611464c -4.61  -4.04c
iter:  37 03:55:24 -6802.611337c -4.43  -3.92
iter:  38 04:04:14 -6802.611430c -4.52  -4.26c
iter:  39 04:13:07 -6802.611367c -5.03  -4.18c
Writing to output.gpw (mode='')

iter:  40 04:21:49 -6802.611372c -5.45  -4.25c
iter:  41 04:30:23 -6802.611377c -5.34  -4.46c
iter:  42 04:39:20 -6802.611389c -5.50  -4.48c
iter:  43 04:48:06 -6802.611391c -5.37  -4.35c
iter:  44 04:57:07 -6802.611424c -5.13  -4.31c
Writing to output.gpw (mode='')

iter:  45 05:06:04 -6802.611464c -4.97  -4.20c
iter:  46 05:15:00 -6802.611473c -5.13  -4.06c
iter:  47 05:23:44 -6802.611525c -4.91  -3.95
iter:  48 05:32:37 -6802.611393c -5.94  -3.81
iter:  49 05:41:42 -6802.611575c -5.36  -3.89
Writing to output.gpw (mode='')

iter:  50 05:50:42 -6802.611573c -5.23  -3.71
iter:  51 05:59:34 -6802.611550c -5.49  -3.67
iter:  52 06:08:36 -6802.611257c -4.93  -3.64
iter:  53 06:17:39 -6802.611302c -4.53  -3.96
iter:  54 06:26:30 -6802.611355c -4.62  -4.37c
Writing to output.gpw (mode='')

iter:  55 06:35:16 -6802.611381c -5.54  -4.54c
iter:  56 06:44:12 -6802.611395c -5.87  -4.35c
iter:  57 06:53:10 -6802.611387c -6.02  -4.25c
iter:  58 07:02:09 -6802.611375c -6.72  -4.22c
iter:  59 07:11:11 -6802.611370c -5.70  -4.28c
Writing to output.gpw (mode='')

iter:  60 07:20:20 -6802.611391c -5.25  -4.58c
iter:  61 07:29:18 -6802.611390c -5.31  -4.44c
iter:  62 07:38:12 -6802.611380c -6.08  -4.41c
iter:  63 07:47:09 -6802.611379c -6.29  -4.48c
iter:  64 07:56:01 -6802.611377c -6.22  -4.51c
Writing to output.gpw (mode='')

iter:  65 08:04:56 -6802.611379c -5.97  -4.66c
iter:  66 08:14:12 -6802.611381c -6.54  -4.66c
iter:  67 08:23:20 -6802.611389c -6.16  -4.58c
iter:  68 08:32:27 -6802.611383c -6.21  -4.38c
iter:  69 08:41:17 -6802.611379c -6.45  -4.44c
Writing to output.gpw (mode='')

iter:  70 08:50:04 -6802.611388c -5.63  -4.69c
iter:  71 08:58:47 -6802.611390c -5.73  -4.60c
iter:  72 09:07:33 -6802.611414c -5.61  -4.49c
iter:  73 09:16:21 -6802.611429c -5.36  -4.20c
iter:  74 09:25:16 -6802.611437c -5.63  -4.09c
Writing to output.gpw (mode='')

iter:  75 09:34:19 -6802.611412c -5.77  -4.03c
iter:  76 09:43:17 -6802.611478c -5.63  -4.01c
iter:  77 09:52:06 -6802.611484c -5.45  -3.83
iter:  78 10:01:01 -6802.611572c -5.32  -3.81
iter:  79 10:09:54 -6802.611537c -5.21  -3.70
Writing to output.gpw (mode='')

iter:  80 10:18:48 -6802.611371c -5.66  -3.67
iter:  81 10:27:54 -6802.611422c -6.31  -3.77
iter:  82 10:36:27 -6802.611384c -6.36  -3.77
iter:  83 10:45:15 -6802.611335c -5.09  -3.80
iter:  84 10:54:18 -6802.611822c -3.99  -4.24c
Writing to output.gpw (mode='')

iter:  85 11:03:14 -6802.611671c -4.25  -3.72
iter:  86 11:12:13 -6802.611367c -5.15  -3.68
iter:  87 11:21:21 -6802.611330c -4.92  -3.85
iter:  88 11:30:13 -6802.611408c -4.46  -4.47c
iter:  89 11:39:13 -6802.611459c -4.59  -4.47c
Writing to output.gpw (mode='')

iter:  90 11:48:18 -6802.611416c -5.23  -4.14c
iter:  91 11:57:06 -6802.611405c -6.05  -4.09c
iter:  92 12:06:05 -6802.611440c -5.71  -4.08c
iter:  93 12:14:57 -6802.611444c -5.64  -3.97
iter:  94 12:23:58 -6802.611370c -5.83  -3.94
Writing to output.gpw (mode='')

iter:  95 12:32:57 -6802.611362c -5.88  -4.06c
iter:  96 12:41:36 -6802.611372c -5.81  -4.15c
iter:  97 12:50:28 -6802.611403c -6.17  -4.23c
iter:  98 12:59:18 -6802.611407c -6.21  -4.12c
iter:  99 13:08:12 -6802.611401c -5.07  -4.08c
Writing to output.gpw (mode='')

iter: 100 13:17:06 -6802.611403c -5.20  -4.22c
iter: 101 13:26:06 -6802.611396c -5.59  -4.21c
iter: 102 13:34:46 -6802.611376c -5.69  -4.22c
iter: 103 13:43:33 -6802.611381c -5.64  -4.67c
iter: 104 13:52:33 -6802.611386c -5.56  -4.74c
Writing to output.gpw (mode='')

iter: 105 14:01:30 -6802.611388c -5.74  -4.66c
iter: 106 14:10:19 -6802.611385c -6.30  -4.54c
iter: 107 14:19:24 -6802.611385c -6.81  -4.54c
iter: 108 14:28:33 -6802.611386c -6.74  -4.51c
iter: 109 14:37:47 -6802.611386c -7.03  -4.49c
Writing to output.gpw (mode='')

iter: 110 14:46:45 -6802.611383c -7.10  -4.47c
iter: 111 14:55:53 -6802.611383c -6.27  -4.49c
iter: 112 15:04:46 -6802.611383c -6.37  -4.78c
iter: 113 15:13:22 -6802.611383c -6.98  -4.77c
iter: 114 15:22:10 -6802.611384c -6.93  -4.75c
Writing to output.gpw (mode='')

iter: 115 15:31:12 -6802.611389c -6.40  -4.71c
iter: 116 15:40:04 -6802.611390c -6.23  -4.50c
iter: 117 15:49:01 -6802.611393c -6.22  -4.45c
iter: 118 15:58:00 -6802.611391c -6.36  -4.37c
iter: 119 16:07:12 -6802.611389c -6.76  -4.33c
Writing to output.gpw (mode='')

iter: 120 16:16:26 -6802.611420c -5.98  -4.32c
iter: 121 16:25:35 -6802.611401c -6.00  -4.09c
iter: 122 16:34:39 -6802.611407c -6.61  -4.09c
iter: 123 16:43:33 -6802.611403c -6.29  -4.06c
iter: 124 16:52:14 -6802.611406c -6.73  -4.05c
Writing to output.gpw (mode='')

iter: 125 17:01:08 -6802.611426c -6.09  -4.03c
iter: 126 17:10:16 -6802.611381c -6.20  -3.97
iter: 127 17:19:01 -6802.611359c -5.44  -4.03c
iter: 128 17:27:57 -6802.611380c -5.05  -4.31c
iter: 129 17:36:45 -6802.611385c -5.22  -4.53c
Writing to output.gpw (mode='')

iter: 130 17:45:25 -6802.611385c -6.06  -4.56c
iter: 131 17:54:13 -6802.611383c -5.88  -4.55c
iter: 132 18:03:05 -6802.611385c -6.12  -4.75c
iter: 133 18:12:14 -6802.611386c -6.18  -4.70c
iter: 134 18:21:27 -6802.611389c -6.16  -4.63c
Writing to output.gpw (mode='')

iter: 135 18:30:17 -6802.611383c -7.01  -4.53c
iter: 136 18:38:57 -6802.611388c -6.93  -4.58c
iter: 137 18:47:47 -6802.611382c -6.90  -4.45c
iter: 138 18:56:51 -6802.611395c -6.51  -4.51c
iter: 139 19:05:43 -6802.611380c -6.42  -4.34c
Writing to output.gpw (mode='')

iter: 140 19:14:38 -6802.611378c -6.55  -4.44c
iter: 141 19:23:16 -6802.611381c -6.27  -4.60c
iter: 142 19:32:07 -6802.611382c -6.36  -4.66c
iter: 143 19:40:49 -6802.611383c -6.17  -4.75c
iter: 144 19:49:21 -6802.611387c -6.24  -4.76c
Writing to output.gpw (mode='')

iter: 145 19:58:23 -6802.611389c -6.16  -4.68c
iter: 146 20:07:18 -6802.611400c -5.98  -4.59c
iter: 147 20:15:58 -6802.611403c -5.75  -4.38c
iter: 148 20:24:32 -6802.611396c -6.26  -4.29c
iter: 149 20:33:17 -6802.611397c -6.66  -4.26c
Writing to output.gpw (mode='')

iter: 150 20:42:15 -6802.611401c -6.35  -4.23c
iter: 151 20:51:04 -6802.611409c -6.28  -4.18c
iter: 152 20:59:43 -6802.611386c -6.27  -4.13c
iter: 153 21:08:42 -6802.611376c -6.11  -4.20c
iter: 154 21:17:49 -6802.611373c -5.50  -4.31c
Writing to output.gpw (mode='')

iter: 155 21:26:25 -6802.611379c -5.38  -4.66c
iter: 156 21:35:00 -6802.611382c -6.17  -4.69c
iter: 157 21:43:59 -6802.611393c -6.08  -4.86c
iter: 158 21:52:59 -6802.611393c -6.01  -4.48c
iter: 159 22:02:00 -6802.611393c -6.41  -4.43c
Writing to output.gpw (mode='')

iter: 160 22:10:45 -6802.611390c -6.57  -4.39c
iter: 161 22:19:20 -6802.611381c -6.81  -4.37c
iter: 162 22:28:06 -6802.611383c -6.98  -4.46c
iter: 163 22:36:46 -6802.611388c -7.10  -4.48c
iter: 164 22:45:23 -6802.611397c -5.71  -4.43c
Writing to output.gpw (mode='')

iter: 165 22:53:56 -6802.611382c -6.10  -4.43c
iter: 166 23:02:39 -6802.611381c -6.64  -4.60c
iter: 167 23:11:33 -6802.611382c -6.52  -4.73c
iter: 168 23:20:18 -6802.611383c -6.50  -4.82c
iter: 169 23:29:19 -6802.611384c -6.20  -5.01c
Writing to output.gpw (mode='')

iter: 170 23:38:27 -6802.611385c -6.37  -4.99c
iter: 171 23:47:13 -6802.611385c -6.59  -4.86c
iter: 172 23:55:57 -6802.611386c -6.81  -4.78c
iter: 173 00:04:48 -6802.611387c -6.60  -4.69c
iter: 174 00:13:45 -6802.611385c -6.94  -4.60c
Writing to output.gpw (mode='')

iter: 175 00:22:47 -6802.611385c -7.66c -4.59c

Converged after 175 iterations.

Dipole moment: (-70.114373, -47.147016, 0.000828) |e|*Ang

Energy contributions relative to reference atoms: (reference = -7966002.330397)

Kinetic:       +135.096830
Potential:      -52.205600
External:        +0.000000
XC:            -6878.620850
Entropy (-ST):   -0.000000
Local:           -6.881765
--------------------------
Free energy:   -6802.611385
Extrapolated:  -6802.611385

Dipole-layer corrected work functions: -inf, -inf eV

 Band  Eigenvalues  Occupancy
    0    -31.87562    2.00000
    1    -31.87506    2.00000
    2    -31.86664    2.00000
    3    -31.86608    2.00000
    4    -31.86096    2.00000
    5    -31.86039    2.00000
    6    -31.85972    2.00000
    7    -31.85915    2.00000
    8    -31.85763    2.00000
    9    -31.85707    2.00000
   10    -31.85439    2.00000
   11    -31.85382    2.00000
   12    -31.85193    2.00000
   13    -31.85137    2.00000
   14    -31.84658    2.00000
   15    -31.84601    2.00000
   16    -31.84533    2.00000
   17    -31.84477    2.00000
   18    -31.43229    2.00000
   19    -31.42058    2.00000
   20    -31.41418    2.00000
   21    -31.41192    2.00000
   22    -31.40957    2.00000
   23    -31.40905    2.00000
   24    -31.40681    2.00000
   25    -31.40562    2.00000
   26    -31.40281    2.00000
   27    -31.40131    2.00000
   28    -31.40052    2.00000
   29    -31.40045    2.00000
   30    -31.39929    2.00000
   31    -31.39725    2.00000
   32    -31.39662    2.00000
   33    -31.39202    2.00000
   34    -31.38632    2.00000
   35    -31.38470    2.00000
   36    -17.23045    2.00000
   37    -17.22671    2.00000
   38    -17.22571    2.00000
   39    -17.22369    2.00000
   40    -17.22220    2.00000
   41    -17.22157    2.00000
   42    -17.22048    2.00000
   43    -17.21985    2.00000
   44    -17.20654    2.00000
   45    -17.20591    2.00000
   46    -17.19638    2.00000
   47    -17.19497    2.00000
   48    -17.19330    2.00000
   49    -17.18964    2.00000
   50    -17.18920    2.00000
   51    -17.18651    2.00000
   52    -17.18537    2.00000
   53    -17.18234    2.00000
   54    -17.17611    2.00000
   55    -17.17529    2.00000
   56    -17.17414    2.00000
   57    -17.17374    2.00000
   58    -17.16768    2.00000
   59    -17.16564    2.00000
   60    -17.16404    2.00000
   61    -17.16362    2.00000
   62    -17.16336    2.00000
   63    -17.16131    2.00000
   64    -17.15899    2.00000
   65    -17.15720    2.00000
   66    -17.15264    2.00000
   67    -17.15207    2.00000
   68    -17.10942    2.00000
   69    -17.10690    2.00000
   70    -17.09425    2.00000
   71    -17.09121    2.00000
   72    -17.08817    2.00000
   73    -17.08681    2.00000
   74    -17.07443    2.00000
   75    -17.07388    2.00000
   76    -17.03371    2.00000
   77    -17.03315    2.00000
   78    -16.96370    2.00000
   79    -16.96189    2.00000
   80    -16.96134    2.00000
   81    -16.95992    2.00000
   82    -16.94887    2.00000
   83    -16.94590    2.00000
   84    -16.94100    2.00000
   85    -16.93808    2.00000
   86    -16.93326    2.00000
   87    -16.93072    2.00000
   88    -16.91535    2.00000
   89    -16.91479    2.00000
   90    -16.83753    2.00000
   91    -16.83729    2.00000
   92    -16.83517    2.00000
   93    -16.83362    2.00000
   94    -16.80302    2.00000
   95    -16.79189    2.00000
   96    -16.79173    2.00000
   97    -16.79145    2.00000
   98    -16.79032    2.00000
   99    -16.78536    2.00000
  100    -16.78227    2.00000
  101    -16.77903    2.00000
  102    -16.77743    2.00000
  103    -16.77657    2.00000
  104    -16.77131    2.00000
  105    -16.73699    2.00000
  106    -16.73637    2.00000
  107    -16.73611    2.00000
  108    -16.71876    2.00000
  109    -16.71830    2.00000
  110    -16.71595    2.00000
  111    -16.71444    2.00000
  112    -16.71158    2.00000
  113    -16.68449    2.00000
  114    -16.68323    2.00000
  115    -16.66387    2.00000
  116    -16.65943    2.00000
  117    -16.65762    2.00000
  118    -16.64204    2.00000
  119    -16.63674    2.00000
  120    -16.62910    2.00000
  121    -16.62187    2.00000
  122    -16.61998    2.00000
  123    -16.60993    2.00000
  124    -16.60206    2.00000
  125    -16.59988    2.00000
  126    -16.59720    2.00000
  127    -16.58845    2.00000
  128    -16.58096    2.00000
  129    -16.57581    2.00000
  130    -16.56970    2.00000
  131    -16.56617    2.00000
  132    -16.56284    2.00000
  133    -16.54133    2.00000
  134    -16.53855    2.00000
  135    -16.53348    2.00000
  136    -16.52895    2.00000
  137    -16.52516    2.00000
  138    -16.52478    2.00000
  139    -16.52077    2.00000
  140    -16.51527    2.00000
  141    -16.50824    2.00000
  142    -16.50051    2.00000
  143    -16.49647    2.00000
  144     -5.00672    2.00000
  145     -4.59165    2.00000
  146     -4.33801    2.00000
  147     -3.99398    2.00000
  148     -3.98801    2.00000
  149     -3.95647    2.00000
  150     -3.80135    2.00000
  151     -3.67000    2.00000
  152     -3.65957    2.00000
  153     -3.47938    2.00000
  154     -3.46454    2.00000
  155     -3.45662    2.00000
  156     -3.45069    2.00000
  157     -3.44376    2.00000
  158     -3.40548    2.00000
  159     -3.38990    2.00000
  160     -3.21977    2.00000
  161     -3.18281    2.00000
  162     -3.11273    2.00000
  163     -3.07165    2.00000
  164     -3.00059    2.00000
  165     -2.99018    2.00000
  166     -2.91075    2.00000
  167     -2.86996    2.00000
  168     -2.86280    2.00000
  169     -2.83337    2.00000
  170     -2.82398    2.00000
  171     -2.76925    2.00000
  172     -2.75536    2.00000
  173     -2.72311    2.00000
  174     -2.71550    2.00000
  175     -2.71235    2.00000
  176     -2.71029    2.00000
  177     -2.70448    2.00000
  178     -2.52902    2.00000
  179     -2.50959    2.00000

Fermi level: inf


Forces in eV/Ang:
  0 Ba    0.00000   -0.00038    0.04610
  1 Ba   -0.00442   -0.00050    0.04643
  2 Ba    0.00442   -0.00050    0.04643
  3 Ba    0.00442    0.00050    0.04643
  4 Ba    0.00000    0.00038    0.04610
  5 Ba   -0.00442    0.00050    0.04643
  6 Ba   -0.00124    0.00000    0.04044
  7 Ba    0.00124    0.00000    0.04044
  8 Ba    0.00000    0.00000    0.04010
  9 Ba    0.00000    0.00000   -0.04663
 10 Ba   -0.00430    0.00000   -0.04128
 11 Ba    0.00430    0.00000   -0.04128
 12 Ba    0.00499   -0.00072   -0.05018
 13 Ba    0.00000   -0.00133   -0.04730
 14 Ba   -0.00499   -0.00072   -0.05018
 15 Ba   -0.00499    0.00072   -0.05018
 16 Ba    0.00499    0.00072   -0.05018
 17 Ba    0.00000    0.00133   -0.04730
 18 Ba    0.00000   -0.00150    0.04810
 19 Ba   -0.00503   -0.00061    0.05025
 20 Ba    0.00503   -0.00061    0.05025
 21 Ba    0.00503    0.00061    0.05025
 22 Ba    0.00000    0.00150    0.04810
 23 Ba   -0.00503    0.00061    0.05025
 24 Ba   -0.00424    0.00000    0.04206
 25 Ba    0.00424    0.00000    0.04206
 26 Ba    0.00000    0.00000    0.04588
 27 Ba    0.00000    0.00000   -0.04111
 28 Ba   -0.00276    0.00000   -0.04054
 29 Ba    0.00276    0.00000   -0.04054
 30 Ba    0.00362    0.00022   -0.04702
 31 Ba    0.00000   -0.00164   -0.04622
 32 Ba   -0.00362    0.00022   -0.04702
 33 Ba   -0.00362   -0.00022   -0.04702
 34 Ba    0.00362   -0.00022   -0.04702
 35 Ba    0.00000    0.00164   -0.04622

System changes: positions 

Initializing position-dependent things.

Density initialized from wave functions
                                                            
                                                            
                                                            
                                                            
                                                            
                                                            
                        Ba          Ba           Ba         
                                                            
                Ba        BaBa        BaBa         Ba       
                                                            
       Ba         BaBa        BaBa        Ba                
                                                            
         Ba           Ba          Ba                        
                                                            
                                                            
                        Ba          Ba           Ba         
                                                            
                Ba        BaBa        BaBa         Ba       
                                                            
       Ba         BaBa        BaBa        Ba                
                                                            
         Ba           Ba          Ba                        
                                                            
                                                            
                                                            
                                                            
                                                            
                                                            

Positions:
   0 Ba     0.000000    3.549598   10.009808    ( 0.0000,  0.0000,  0.0000)
   1 Ba     5.019058    3.549566   10.009880    ( 0.0000,  0.0000,  0.0000)
   2 Ba    10.040942    3.549566   10.009880    ( 0.0000,  0.0000,  0.0000)
   3 Ba     2.510942    7.099462   10.009880    ( 0.0000,  0.0000,  0.0000)
   4 Ba     7.530000    7.099430   10.009808    ( 0.0000,  0.0000,  0.0000)
   5 Ba    12.549058    7.099462   10.009880    ( 0.0000,  0.0000,  0.0000)
   6 Ba     5.019739   10.649028   10.008608    ( 0.0000,  0.0000,  0.0000)
   7 Ba    10.040261   10.649028   10.008608    ( 0.0000,  0.0000,  0.0000)
   8 Ba    15.060000   10.649028   10.008534    ( 0.0000,  0.0000,  0.0000)
   9 Ba     0.000000   -0.000000   13.539738    ( 0.0000,  0.0000,  0.0000)
  10 Ba     5.019087    0.000000   13.540893    ( 0.0000,  0.0000,  0.0000)
  11 Ba    10.040913   -0.000000   13.540893    ( 0.0000,  0.0000,  0.0000)
  12 Ba     2.511065    3.549522   13.538992    ( 0.0000,  0.0000,  0.0000)
  13 Ba     7.530000    3.549390   13.539613    ( 0.0000,  0.0000,  0.0000)
  14 Ba    12.548935    3.549522   13.538992    ( 0.0000,  0.0000,  0.0000)
  15 Ba     5.018935    7.099506   13.538992    ( 0.0000,  0.0000,  0.0000)
  16 Ba    10.041065    7.099506   13.538992    ( 0.0000,  0.0000,  0.0000)
  17 Ba    15.060000    7.099639   13.539613    ( 0.0000,  0.0000,  0.0000)
  18 Ba     0.000000    3.549359   17.109589    ( 0.0000,  0.0000,  0.0000)
  19 Ba     5.018931    3.549543   17.110038    ( 0.0000,  0.0000,  0.0000)
  20 Ba    10.041069    3.549543   17.110038    ( 0.0000,  0.0000,  0.0000)
  21 Ba     2.511069    7.099485   17.110038    ( 0.0000,  0.0000,  0.0000)
  22 Ba     7.530000    7.099669   17.109589    ( 0.0000,  0.0000,  0.0000)
  23 Ba    12.548931    7.099485   17.110038    ( 0.0000,  0.0000,  0.0000)
  24 Ba     5.019090   10.649028   17.108306    ( 0.0000,  0.0000,  0.0000)
  25 Ba    10.040910   10.649028   17.108306    ( 0.0000,  0.0000,  0.0000)
  26 Ba    15.060000   10.649028   17.109106    ( 0.0000,  0.0000,  0.0000)
  27 Ba     0.000000    0.000000   20.640291    ( 0.0000,  0.0000,  0.0000)
  28 Ba     5.019405   -0.000000   20.640409    ( 0.0000,  0.0000,  0.0000)
  29 Ba    10.040595   -0.000000   20.640409    ( 0.0000,  0.0000,  0.0000)
  30 Ba     2.510768    3.549723   20.639035    ( 0.0000,  0.0000,  0.0000)
  31 Ba     7.530000    3.549320   20.639203    ( 0.0000,  0.0000,  0.0000)
  32 Ba    12.549232    3.549723   20.639035    ( 0.0000,  0.0000,  0.0000)
  33 Ba     5.019232    7.099305   20.639035    ( 0.0000,  0.0000,  0.0000)
  34 Ba    10.040768    7.099305   20.639035    ( 0.0000,  0.0000,  0.0000)
  35 Ba    15.060000    7.099708   20.639203    ( 0.0000,  0.0000,  0.0000)

Unit cell:
           periodic     x           y           z      points  spacing
  1. axis:    yes   15.060000    0.000000    0.000000    80     0.1537
  2. axis:    yes    7.530000   10.649028    0.000000    80     0.1331
  3. axis:    no     0.000000    0.000000   30.649028   192     0.1596

  Lengths:  15.060000  13.042343  30.649028
  Angles:   90.000000  90.000000  54.735610

Effective grid spacing dv^(1/3) = 0.1587

     iter     time        total  log10-change:
                         energy  eigst   dens
iter:   1 00:32:40 -6802.626019  -2.24
iter:   2 00:41:25 -6802.630538  -2.70  -3.01
iter:   3 00:50:34 -6802.637262c -2.99  -2.86
iter:   4 00:59:54 -6802.631868c -3.09  -2.71
Writing to output.gpw (mode='')

iter:   5 01:09:04 -6802.627017c -3.69  -2.72
iter:   6 01:18:12 -6802.627482c -3.23  -2.77
iter:   7 01:27:11 -6802.628718c -3.06  -2.85
iter:   8 01:36:01 -6802.630192c -3.59  -2.85
iter:   9 01:45:04 -6802.629244c -3.45  -2.75
Writing to output.gpw (mode='')

iter:  10 01:54:13 -6802.626212c -3.17  -2.93
iter:  11 02:03:10 -6802.622755c -3.45  -2.98
iter:  12 02:12:12 -6802.621832c -3.59  -3.06
iter:  13 02:20:59 -6802.623915c -3.25  -3.13
iter:  14 02:29:56 -6802.626986c -3.39  -3.12
Writing to output.gpw (mode='')

iter:  15 02:38:49 -6802.627941c -3.72  -2.98
iter:  16 02:47:43 -6802.637690c -2.76  -2.89
iter:  17 02:56:37 -6802.630215c -3.07  -2.85
iter:  18 03:05:40 -6802.622281c -3.61  -2.85
iter:  19 03:14:11 -6802.620573c -3.38  -2.97
Writing to output.gpw (mode='')

iter:  20 03:23:03 -6802.623187c -3.50  -3.10
iter:  21 03:31:58 -6802.678607c -2.46  -3.11
iter:  22 03:40:41 -6802.608111c -2.62  -2.46
iter:  23 03:46:05 -6802.624781c -3.19  -2.57
iter:  24 03:48:31 -6802.626426c -3.78  -2.59
Writing to output.gpw (mode='')

iter:  25 03:50:57 -6802.627876c -4.10  -2.60
iter:  26 03:53:23 -6802.632975c -2.45  -2.61
iter:  27 03:55:48 -6802.659229c -2.22  -2.85
iter:  28 03:58:14 -6802.640733c -2.66  -2.70
iter:  29 04:00:39 -6802.616380c -2.80  -2.70
Writing to output.gpw (mode='')

iter:  30 04:03:06 -6802.618848c -2.89  -3.07
iter:  31 04:05:31 -6802.622031c -3.18  -3.19
iter:  32 04:07:56 -6802.622726c -3.55  -3.36
iter:  33 04:10:22 -6802.625081c -3.31  -3.42
iter:  34 04:12:47 -6802.625502c -3.44  -3.29
Writing to output.gpw (mode='')

iter:  35 04:15:13 -6802.627311c -3.43  -3.24
iter:  36 04:17:39 -6802.626080c -3.59  -3.15
iter:  37 04:20:04 -6802.625071c -4.19  -3.13
iter:  38 04:22:30 -6802.626167c -4.28  -3.14
iter:  39 04:24:56 -6802.625705c -3.99  -3.09
Writing to output.gpw (mode='')

iter:  40 04:27:22 -6802.625974c -4.31  -3.09
iter:  41 04:29:48 -6802.622799c -3.47  -3.06
iter:  42 04:32:13 -6802.623554c -3.33  -3.25
iter:  43 04:34:39 -6802.623531c -3.60  -3.28
iter:  44 04:37:04 -6802.624133c -4.05  -3.53
Writing to output.gpw (mode='')

iter:  45 04:39:31 -6802.623911c -4.55  -3.50
iter:  46 04:41:56 -6802.623595c -4.60  -3.50
iter:  47 04:44:22 -6802.623724c -4.30  -3.65
iter:  48 04:46:47 -6802.623847c -4.33  -3.73
iter:  49 04:49:12 -6802.623774c -4.69  -3.69
Writing to output.gpw (mode='')

iter:  50 04:51:40 -6802.625082c -4.13  -3.67
iter:  51 04:54:06 -6802.624224c -4.32  -3.29
iter:  52 04:56:31 -6802.623656c -5.05  -3.31
iter:  53 04:58:56 -6802.624573c -4.78  -3.38
iter:  54 05:01:22 -6802.624733c -4.44  -3.30
Writing to output.gpw (mode='')

iter:  55 05:03:48 -6802.624898c -4.49  -3.26
iter:  56 05:06:14 -6802.623619c -4.72  -3.21
iter:  57 05:08:39 -6802.624852c -4.77  -3.29
iter:  58 05:11:05 -6802.626069c -4.14  -3.22
iter:  59 05:13:30 -6802.624962c -4.48  -3.12
Writing to output.gpw (mode='')

iter:  60 05:15:56 -6802.623161c -4.19  -3.11
iter:  61 05:18:22 -6802.623242c -3.69  -3.34
iter:  62 05:20:47 -6802.623846c -3.40  -3.58
iter:  63 05:23:12 -6802.623739c -3.95  -3.59
iter:  64 05:25:38 -6802.623765c -4.54  -3.65
Writing to output.gpw (mode='')

iter:  65 05:28:04 -6802.623724c -4.57  -3.64
iter:  66 05:30:30 -6802.623662c -4.79  -3.66
iter:  67 05:32:55 -6802.624446c -4.10  -3.71
iter:  68 05:35:20 -6802.624283c -4.11  -3.49
iter:  69 05:37:46 -6802.624071c -4.75  -3.46
Writing to output.gpw (mode='')

iter:  70 05:40:15 -6802.623752c -5.38  -3.45
iter:  71 05:42:40 -6802.623743c -5.53  -3.49
iter:  72 05:45:06 -6802.626201c -4.10  -3.50
iter:  73 05:47:31 -6802.622206c -3.72  -3.12
iter:  74 05:49:56 -6802.622236c -3.80  -3.31
Writing to output.gpw (mode='')

iter:  75 05:52:22 -6802.622782c -3.72  -3.42
iter:  76 05:54:48 -6802.623742c -4.96  -3.53
iter:  77 05:57:13 -6802.623504c -4.84  -3.49
iter:  78 05:59:38 -6802.623530c -4.24  -3.62
iter:  79 06:02:03 -6802.623721c -4.87  -3.76
Writing to output.gpw (mode='')

iter:  80 06:04:30 -6802.624427c -4.61  -3.75
iter:  81 06:06:55 -6802.623388c -3.80  -3.48
iter:  82 06:09:20 -6802.623899c -4.64  -3.87
iter:  83 06:11:45 -6802.624339c -4.58  -3.71
iter:  84 06:14:11 -6802.623717c -5.19  -3.55
Writing to output.gpw (mode='')

iter:  85 06:16:37 -6802.623578c -5.24  -3.61
iter:  86 06:19:02 -6802.623669c -5.21  -3.76
iter:  87 06:21:27 -6802.624070c -4.30  -3.77
iter:  88 06:23:52 -6802.623605c -4.14  -3.62
iter:  89 06:26:18 -6802.623682c -4.54  -4.04c
Writing to output.gpw (mode='')

iter:  90 06:28:44 -6802.623881c -4.63  -4.09c
iter:  91 06:31:09 -6802.623791c -4.86  -3.85
iter:  92 06:33:35 -6802.623975c -4.33  -3.84
iter:  93 06:36:00 -6802.623938c -4.43  -3.76
iter:  94 06:38:25 -6802.623956c -4.98  -3.72
Writing to output.gpw (mode='')

iter:  95 06:40:52 -6802.623976c -4.72  -3.68
iter:  96 06:43:17 -6802.623802c -5.33  -3.65
iter:  97 06:45:42 -6802.623933c -5.41  -3.69
iter:  98 06:48:07 -6802.623582c -4.67  -3.60
iter:  99 06:50:33 -6802.623678c -4.96  -3.83
Writing to output.gpw (mode='')

iter: 100 06:52:59 -6802.623793c -5.47  -3.84
iter: 101 06:55:25 -6802.623764c -5.98  -3.81
iter: 102 06:57:50 -6802.623708c -4.99  -3.79
iter: 103 07:00:16 -6802.623719c -5.10  -4.05c
iter: 104 07:02:41 -6802.624156c -4.53  -4.06c
Writing to output.gpw (mode='')

iter: 105 07:05:09 -6802.624068c -4.48  -3.64
iter: 106 07:07:34 -6802.624130c -5.13  -3.61
iter: 107 07:09:59 -6802.623550c -4.49  -3.56
iter: 108 07:12:25 -6802.623571c -4.74  -3.80
iter: 109 07:14:50 -6802.623705c -5.14  -3.87
Writing to output.gpw (mode='')

iter: 110 07:17:16 -6802.623751c -6.19  -3.88
iter: 111 07:19:42 -6802.624280c -4.19  -3.86
iter: 112 07:22:07 -6802.624615c -4.21  -3.48
iter: 113 07:24:32 -6802.624448c -4.41  -3.41
iter: 114 07:26:58 -6802.623504c -4.63  -3.38
Writing to output.gpw (mode='')

iter: 115 07:29:24 -6802.623524c -4.24  -3.57
iter: 116 07:31:50 -6802.623717c -3.82  -4.11c
iter: 117 07:34:15 -6802.623867c -4.23  -4.20c
iter: 118 07:36:40 -6802.623759c -4.65  -3.96
iter: 119 07:39:05 -6802.623708c -5.63  -4.02c
Writing to output.gpw (mode='')

iter: 120 07:41:32 -6802.623706c -5.48  -4.15c
iter: 121 07:43:57 -6802.623717c -5.84  -4.20c
iter: 122 07:46:23 -6802.623759c -5.72  -4.23c
iter: 123 07:48:48 -6802.623729c -5.81  -4.09c
iter: 124 07:51:13 -6802.623714c -5.65  -4.12c
Writing to output.gpw (mode='')

iter: 125 07:53:40 -6802.623738c -5.79  -4.30c
iter: 126 07:56:05 -6802.623737c -5.70  -4.23c
iter: 127 07:58:30 -6802.623745c -5.42  -4.18c
iter: 128 08:00:55 -6802.624074c -4.74  -4.13c
iter: 129 08:03:21 -6802.623652c -4.79  -3.64
Writing to output.gpw (mode='')

iter: 130 08:05:47 -6802.623661c -5.28  -3.81
iter: 131 08:08:12 -6802.623729c -5.64  -3.85
iter: 132 08:10:37 -6802.623886c -4.53  -3.85
iter: 133 08:13:03 -6802.623720c -5.04  -3.84
iter: 134 08:15:28 -6802.623680c -5.41  -3.94
Writing to output.gpw (mode='')

iter: 135 08:22:11 -6802.623691c -4.96  -4.15c
iter: 136 08:30:56 -6802.623710c -5.39  -4.23c
iter: 137 08:39:28 -6802.623733c -6.00  -4.30c
iter: 138 08:48:21 -6802.623741c -6.22  -4.24c
iter: 139 08:57:09 -6802.623769c -5.64  -4.18c
Writing to output.gpw (mode='')

iter: 140 09:06:14 -6802.623735c -6.12  -4.07c
iter: 141 09:15:06 -6802.623714c -5.72  -4.09c
iter: 142 09:24:01 -6802.623719c -5.51  -4.41c
iter: 143 09:32:54 -6802.623727c -6.18  -4.43c
iter: 144 09:41:56 -6802.623723c -6.70  -4.40c
Writing to output.gpw (mode='')

iter: 145 09:50:50 -6802.623875c -4.99  -4.42c
iter: 146 09:59:56 -6802.623760c -5.28  -3.81
iter: 147 10:08:55 -6802.623701c -5.85  -3.84
iter: 148 10:17:36 -6802.623717c -5.69  -3.94
iter: 149 10:26:35 -6802.623699c -5.55  -3.96
Writing to output.gpw (mode='')

iter: 150 10:35:12 -6802.623746c -6.12  -4.16c
iter: 151 10:43:57 -6802.623710c -6.18  -4.07c
iter: 152 10:53:09 -6802.623706c -5.58  -4.18c
iter: 153 11:02:05 -6802.623715c -5.55  -4.32c
iter: 154 11:11:00 -6802.623719c -5.90  -4.40c
Writing to output.gpw (mode='')

iter: 155 11:20:15 -6802.623722c -5.54  -4.49c
iter: 156 11:29:08 -6802.623733c -5.95  -4.54c
iter: 157 11:38:08 -6802.623722c -6.50  -4.44c
iter: 158 11:46:54 -6802.623739c -5.69  -4.54c
iter: 159 11:55:55 -6802.623741c -5.45  -4.46c
Writing to output.gpw (mode='')

iter: 160 12:04:53 -6802.623742c -5.79  -4.38c
iter: 161 12:13:34 -6802.623742c -5.91  -4.33c
iter: 162 12:22:42 -6802.623741c -6.18  -4.27c
iter: 163 12:31:30 -6802.623912c -5.29  -4.24c
iter: 164 12:40:16 -6802.623801c -5.41  -3.75
Writing to output.gpw (mode='')

iter: 165 12:49:17 -6802.623793c -5.97  -3.76
iter: 166 12:58:27 -6802.623747c -5.99  -3.76
iter: 167 13:07:37 -6802.623664c -5.25  -3.79
iter: 168 13:16:23 -6802.623695c -4.61  -4.04c
iter: 169 13:25:20 -6802.623734c -4.74  -4.45c
Writing to output.gpw (mode='')

iter: 170 13:34:08 -6802.623739c -5.36  -4.45c
iter: 171 13:42:51 -6802.623752c -5.66  -4.44c
iter: 172 13:51:57 -6802.623744c -5.84  -4.30c
iter: 173 14:01:07 -6802.623748c -6.15  -4.23c
iter: 174 14:10:20 -6802.623716c -5.96  -4.16c
Writing to output.gpw (mode='')

iter: 175 14:19:16 -6802.623717c -6.06  -4.35c
iter: 176 14:28:24 -6802.623723c -6.31  -4.40c
iter: 177 14:37:41 -6802.623734c -6.56  -4.43c
iter: 178 14:46:50 -6802.623738c -6.66  -4.30c
iter: 179 14:55:47 -6802.623770c -5.84  -4.26c
Writing to output.gpw (mode='')

iter: 180 15:04:42 -6802.623733c -6.60  -4.07c
iter: 181 15:13:32 -6802.623757c -6.69  -4.11c
iter: 182 15:22:38 -6802.623784c -5.73  -4.04c
iter: 183 15:31:36 -6802.623804c -5.69  -3.96
iter: 184 15:40:32 -6802.623732c -6.31  -3.90
Writing to output.gpw (mode='')

iter: 185 15:49:20 -6802.623737c -6.82  -3.96
iter: 186 15:58:07 -6802.623865c -5.43  -3.97
iter: 187 16:07:07 -6802.623715c -5.59  -3.71
iter: 188 16:15:58 -6802.623643c -5.28  -3.77
iter: 189 16:24:45 -6802.623663c -4.82  -4.05c
Writing to output.gpw (mode='')

iter: 190 16:34:02 -6802.623680c -5.16  -4.13c
iter: 191 16:43:08 -6802.623708c -4.88  -4.40c
iter: 192 16:51:58 -6802.623720c -5.30  -4.54c
iter: 193 17:00:56 -6802.623729c -5.36  -4.56c
iter: 194 17:09:51 -6802.623729c -5.49  -4.52c
Writing to output.gpw (mode='')

iter: 195 17:18:35 -6802.623736c -5.87  -4.47c
iter: 196 17:27:22 -6802.623729c -5.74  -4.37c
iter: 197 17:36:23 -6802.623728c -6.38  -4.39c
iter: 198 17:45:19 -6802.623729c -6.27  -4.39c
iter: 199 17:54:06 -6802.623723c -6.38  -4.36c
Writing to output.gpw (mode='')

iter: 200 18:02:59 -6802.623731c -6.68  -4.48c
iter: 201 18:11:57 -6802.623728c -5.71  -4.45c
iter: 202 18:20:34 -6802.623725c -6.36  -4.62c
iter: 203 18:29:10 -6802.623725c -6.72  -4.77c
iter: 204 18:38:03 -6802.623726c -6.60  -5.02c
Writing to output.gpw (mode='')

iter: 205 18:46:51 -6802.623726c -7.18  -5.09c
iter: 206 18:55:35 -6802.623726c -7.06  -5.20c
iter: 207 19:04:18 -6802.623726c -7.33  -5.25c
iter: 208 19:13:06 -6802.623726c -7.48c -5.25c

Converged after 208 iterations.

Dipole moment: (-70.115007, -47.149552, 0.000159) |e|*Ang

Energy contributions relative to reference atoms: (reference = -7966002.330397)

Kinetic:       +135.694228
Potential:      -52.541200
External:        +0.000000
XC:            -6878.891780
Entropy (-ST):   -0.000000
Local:           -6.884974
--------------------------
Free energy:   -6802.623726
Extrapolated:  -6802.623726

Dipole-layer corrected work functions: -inf, -inf eV

 Band  Eigenvalues  Occupancy
    0    -31.86711    2.00000
    1    -31.86709    2.00000
    2    -31.85813    2.00000
    3    -31.85811    2.00000
    4    -31.85243    2.00000
    5    -31.85242    2.00000
    6    -31.85121    2.00000
    7    -31.85116    2.00000
    8    -31.84906    2.00000
    9    -31.84903    2.00000
   10    -31.84583    2.00000
   11    -31.84580    2.00000
   12    -31.84338    2.00000
   13    -31.84334    2.00000
   14    -31.83802    2.00000
   15    -31.83800    2.00000
   16    -31.83678    2.00000
   17    -31.83673    2.00000
   18    -31.43081    2.00000
   19    -31.41923    2.00000
   20    -31.41286    2.00000
   21    -31.41132    2.00000
   22    -31.40840    2.00000
   23    -31.40767    2.00000
   24    -31.40567    2.00000
   25    -31.40494    2.00000
   26    -31.40193    2.00000
   27    -31.40049    2.00000
   28    -31.39963    2.00000
   29    -31.39909    2.00000
   30    -31.39823    2.00000
   31    -31.39629    2.00000
   32    -31.39533    2.00000
   33    -31.39135    2.00000
   34    -31.38551    2.00000
   35    -31.38401    2.00000
   36    -17.22474    2.00000
   37    -17.21981    2.00000
   38    -17.21896    2.00000
   39    -17.21771    2.00000
   40    -17.21419    2.00000
   41    -17.21387    2.00000
   42    -17.21249    2.00000
   43    -17.21216    2.00000
   44    -17.20037    2.00000
   45    -17.20006    2.00000
   46    -17.19035    2.00000
   47    -17.18899    2.00000
   48    -17.18735    2.00000
   49    -17.18355    2.00000
   50    -17.18321    2.00000
   51    -17.18049    2.00000
   52    -17.17925    2.00000
   53    -17.17612    2.00000
   54    -17.16933    2.00000
   55    -17.16902    2.00000
   56    -17.16796    2.00000
   57    -17.16686    2.00000
   58    -17.16126    2.00000
   59    -17.15921    2.00000
   60    -17.15725    2.00000
   61    -17.15672    2.00000
   62    -17.15629    2.00000
   63    -17.15489    2.00000
   64    -17.15183    2.00000
   65    -17.15002    2.00000
   66    -17.14450    2.00000
   67    -17.14440    2.00000
   68    -17.10308    2.00000
   69    -17.10046    2.00000
   70    -17.08740    2.00000
   71    -17.08420    2.00000
   72    -17.08124    2.00000
   73    -17.07995    2.00000
   74    -17.06756    2.00000
   75    -17.06747    2.00000
   76    -17.02667    2.00000
   77    -17.02659    2.00000
   78    -16.95640    2.00000
   79    -16.95460    2.00000
   80    -16.95453    2.00000
   81    -16.95319    2.00000
   82    -16.94172    2.00000
   83    -16.93858    2.00000
   84    -16.93390    2.00000
   85    -16.93077    2.00000
   86    -16.92582    2.00000
   87    -16.92317    2.00000
   88    -16.90688    2.00000
   89    -16.90683    2.00000
   90    -16.83466    2.00000
   91    -16.83362    2.00000
   92    -16.83150    2.00000
   93    -16.83104    2.00000
   94    -16.79884    2.00000
   95    -16.78957    2.00000
   96    -16.78811    2.00000
   97    -16.78738    2.00000
   98    -16.78472    2.00000
   99    -16.78424    2.00000
  100    -16.77833    2.00000
  101    -16.77561    2.00000
  102    -16.77400    2.00000
  103    -16.77130    2.00000
  104    -16.76809    2.00000
  105    -16.73466    2.00000
  106    -16.73441    2.00000
  107    -16.73250    2.00000
  108    -16.71535    2.00000
  109    -16.71425    2.00000
  110    -16.71266    2.00000
  111    -16.71145    2.00000
  112    -16.70919    2.00000
  113    -16.68331    2.00000
  114    -16.68158    2.00000
  115    -16.66227    2.00000
  116    -16.65827    2.00000
  117    -16.65582    2.00000
  118    -16.64145    2.00000
  119    -16.63715    2.00000
  120    -16.62917    2.00000
  121    -16.62105    2.00000
  122    -16.61893    2.00000
  123    -16.60778    2.00000
  124    -16.60241    2.00000
  125    -16.60054    2.00000
  126    -16.59768    2.00000
  127    -16.58847    2.00000
  128    -16.58146    2.00000
  129    -16.57644    2.00000
  130    -16.56990    2.00000
  131    -16.56688    2.00000
  132    -16.56344    2.00000
  133    -16.54118    2.00000
  134    -16.53783    2.00000
  135    -16.53304    2.00000
  136    -16.52918    2.00000
  137    -16.52435    2.00000
  138    -16.52412    2.00000
  139    -16.52027    2.00000
  140    -16.51475    2.00000
  141    -16.50768    2.00000
  142    -16.49916    2.00000
  143    -16.49532    2.00000
  144     -5.00512    2.00000
  145     -4.59034    2.00000
  146     -4.33630    2.00000
  147     -3.98773    2.00000
  148     -3.98606    2.00000
  149     -3.95480    2.00000
  150     -3.79965    2.00000
  151     -3.66793    2.00000
  152     -3.65797    2.00000
  153     -3.47764    2.00000
  154     -3.46221    2.00000
  155     -3.45532    2.00000
  156     -3.44665    2.00000
  157     -3.44204    2.00000
  158     -3.40356    2.00000
  159     -3.38837    2.00000
  160     -3.21745    2.00000
  161     -3.18237    2.00000
  162     -3.11166    2.00000
  163     -3.07050    2.00000
  164     -2.99892    2.00000
  165     -2.98677    2.00000
  166     -2.90802    2.00000
  167     -2.86913    2.00000
  168     -2.86080    2.00000
  169     -2.83169    2.00000
  170     -2.82409    2.00000
  171     -2.76773    2.00000
  172     -2.75450    2.00000
  173     -2.72239    2.00000
  174     -2.71529    2.00000
  175     -2.70957    2.00000
  176     -2.70834    2.00000
  177     -2.70352    2.00000
  178     -2.52848    2.00000
  179     -2.51134    2.00000

Fermi level: inf

Writing to output.gpw (mode='')


Forces in eV/Ang:
  0 Ba    0.00000    0.00155    0.03755
  1 Ba   -0.00368    0.00202    0.03651
  2 Ba    0.00368    0.00202    0.03651
  3 Ba    0.00368   -0.00202    0.03651
  4 Ba    0.00000   -0.00155    0.03755
  5 Ba   -0.00368   -0.00202    0.03651
  6 Ba    0.00078    0.00000    0.03132
  7 Ba   -0.00078    0.00000    0.03132
  8 Ba    0.00000    0.00000    0.03428
  9 Ba    0.00000    0.00000   -0.02390
 10 Ba    0.00033    0.00000   -0.01942
 11 Ba   -0.00033    0.00000   -0.01942
 12 Ba    0.00293    0.00177   -0.02617
 13 Ba    0.00000   -0.00009   -0.02391
 14 Ba   -0.00293    0.00177   -0.02617
 15 Ba   -0.00293   -0.00177   -0.02617
 16 Ba    0.00293   -0.00177   -0.02617
 17 Ba    0.00000    0.00009   -0.02391
 18 Ba    0.00000    0.00009    0.02494
 19 Ba   -0.00288    0.00166    0.02633
 20 Ba    0.00288    0.00166    0.02633
 21 Ba    0.00288   -0.00166    0.02633
 22 Ba    0.00000   -0.00009    0.02494
 23 Ba   -0.00288   -0.00166    0.02633
 24 Ba    0.00044    0.00000    0.02029
 25 Ba   -0.00044    0.00000    0.02029
 26 Ba    0.00000    0.00000    0.02321
 27 Ba    0.00000    0.00000   -0.03511
 28 Ba    0.00049    0.00000   -0.03100
 29 Ba   -0.00049    0.00000   -0.03100
 30 Ba    0.00351    0.00240   -0.03658
 31 Ba    0.00000    0.00095   -0.03713
 32 Ba   -0.00351    0.00240   -0.03658
 33 Ba   -0.00351   -0.00240   -0.03658
 34 Ba    0.00351   -0.00240   -0.03658
 35 Ba    0.00000   -0.00095   -0.03713

Timing:                                      incl.     excl.
-------------------------------------------------------------------
Density initialized from wave functions:     3.034     1.082   0.0% |
 Symmetrize density:                         1.952     1.952   0.0% |
Forces:                                     23.955    23.955   0.0% |
Hamiltonian:                               488.569     0.001   0.0% |
 Atomic:                                     2.713     1.672   0.0% |
  XC Correction:                             1.041     1.041   0.0% |
 Calculate atomic Hamiltonians:              0.302     0.302   0.0% |
 Communicate:                                0.826     0.826   0.0% |
 Hartree integrate/restrict:                 0.294     0.294   0.0% |
 Poisson:                                    4.907     1.742   0.0% |
  Communicate from 1D:                       0.588     0.588   0.0% |
  Communicate from 2D:                       0.921     0.921   0.0% |
  Communicate to 1D:                         0.440     0.440   0.0% |
  Communicate to 2D:                         0.567     0.567   0.0% |
  FFT 1D:                                    0.298     0.298   0.0% |
  FFT 2D:                                    0.351     0.351   0.0% |
 XC 3D grid:                               479.510    15.936   0.0% |
  VdW-DF integral:                         463.574     1.217   0.0% |
   Convolution:                             30.457    30.457   0.0% |
   FFT:                                      7.371     7.371   0.0% |
   gather:                                 332.841   332.841   0.1% |
   hmm1:                                     6.721     6.721   0.0% |
   hmm2:                                     8.923     8.923   0.0% |
   iFFT:                                     6.934     6.934   0.0% |
   potential:                               50.787     0.247   0.0% |
    collect:                                 8.234     8.234   0.0% |
    p1:                                     18.186    18.186   0.0% |
    p2:                                     13.876    13.876   0.0% |
    sum:                                    10.244    10.244   0.0% |
   splines:                                 18.323    18.323   0.0% |
 vbar:                                       0.016     0.016   0.0% |
LCAO initialization:                         9.349     0.068   0.0% |
 LCAO eigensolver:                           1.053     0.001   0.0% |
  Calculate projections:                     0.000     0.000   0.0% |
  DenseAtomicCorrection:                     0.000     0.000   0.0% |
  Distribute overlap matrix:                 0.419     0.419   0.0% |
  Orbital Layouts:                           0.632     0.632   0.0% |
  Potential matrix:                          0.000     0.000   0.0% |
  Sum over cells:                            0.001     0.001   0.0% |
 LCAO to grid:                               7.808     7.808   0.0% |
 Set positions (LCAO WFS):                   0.421     0.269   0.0% |
  Basic WFS set positions:                   0.011     0.011   0.0% |
  Basis functions set positions:             0.001     0.001   0.0% |
  P tci:                                     0.000     0.000   0.0% |
  ST tci:                                    0.045     0.045   0.0% |
  mktci:                                     0.095     0.095   0.0% |
Redistribute:                                0.047     0.047   0.0% |
SCF-cycle:                               392361.199   306.315   0.1% |
 Davidson:                               282767.704 127412.395  32.4% |------------|
  Apply hamiltonian:                     18518.472 18518.472   4.7% |-|
  Subspace diag:                         25850.761     0.188   0.0% |
   calc_h_matrix:                        12091.051  3463.850   0.9% |
    Apply hamiltonian:                    8627.201  8627.201   2.2% ||
   diagonalize:                            735.055   735.055   0.2% |
   rotate_psi:                           13024.468 13024.468   3.3% ||
  calc. matrices:                        71085.389 38634.160   9.8% |---|
   Apply hamiltonian:                    32451.229 32451.229   8.3% |--|
  diagonalize:                            1168.226  1168.226   0.3% |
  rotate_psi:                            38732.460 38732.460   9.9% |---|
 Density:                                 1318.322     0.031   0.0% |
  Atomic density matrices:                  16.658    16.658   0.0% |
  Mix:                                     252.927   252.927   0.1% |
  Multipole moments:                         6.164     6.164   0.0% |
  Pseudo density:                         1042.542   213.914   0.1% |
   Symmetrize density:                     828.628   828.628   0.2% |
 Hamiltonian:                            107927.269     0.185   0.0% |
  Atomic:                                  656.411   332.401   0.1% |
   XC Correction:                          324.010   324.010   0.1% |
  Calculate atomic Hamiltonians:            95.732    95.732   0.0% |
  Communicate:                             162.189   162.189   0.0% |
  Hartree integrate/restrict:               87.846    87.846   0.0% |
  Poisson:                                1183.177   442.320   0.1% |
   Communicate from 1D:                    158.920   158.920   0.0% |
   Communicate from 2D:                    173.983   173.983   0.0% |
   Communicate to 1D:                       83.615    83.615   0.0% |
   Communicate to 2D:                      168.156   168.156   0.0% |
   FFT 1D:                                  73.937    73.937   0.0% |
   FFT 2D:                                  82.247    82.247   0.0% |
  XC 3D grid:                            105735.694  4229.488   1.1% |
   VdW-DF integral:                      101506.205   300.513   0.1% |
    Convolution:                          7911.691  7911.691   2.0% ||
    FFT:                                  1893.490  1893.490   0.5% |
    gather:                              72649.226 72649.226  18.5% |------|
    hmm1:                                 1700.741  1700.741   0.4% |
    hmm2:                                 2311.605  2311.605   0.6% |
    iFFT:                                 1791.164  1791.164   0.5% |
    potential:                           12947.765    71.244   0.0% |
     collect:                             2218.066  2218.066   0.6% |
     p1:                                  4947.641  4947.641   1.3% ||
     p2:                                  3368.231  3368.231   0.9% |
     sum:                                 2342.583  2342.583   0.6% |
    splines:                                 0.009     0.009   0.0% |
  vbar:                                      6.035     6.035   0.0% |
 Orthonormalize:                            41.589     0.001   0.0% |
  calc_s_matrix:                             5.405     5.405   0.0% |
  inverse-cholesky:                         10.798    10.798   0.0% |
  projections:                               0.000     0.000   0.0% |
  rotate_psi_s:                             25.385    25.385   0.0% |
Set symmetry:                                0.006     0.006   0.0% |
Other:                                      48.968    48.968   0.0% |
-------------------------------------------------------------------
Total:                                             392935.126 100.0%

Memory usage: 2.26 GiB
Date: Sat Feb 11 19:13:15 2023
