
  ___ ___ ___ _ _ _  
 |   |   |_  | | | | 
 | | | | | . | | | | 
 |__ |  _|___|_____|  22.8.0
 |___|_|             

User:   vazumah@c10.hercules
Date:   Mon Feb 13 09:14:54 2023
Arch:   x86_64
Pid:    19786
CWD:    /home/vazumah/Python_projects/LiNRR/autocad_start/slab_experiments/fixed_slab_def_vacuum/Ca/fcc100/substrate
Python: 3.10.8
gpaw:   /home/vazumah/.conda/envs/GPAW/lib/python3.10/site-packages/gpaw
_gpaw:  /home/vazumah/.conda/envs/GPAW/lib/python3.10/site-packages/
        _gpaw.cpython-310-x86_64-linux-gnu.so
ase:    /home/vazumah/.conda/envs/GPAW/lib/python3.10/site-packages/ase (version 3.22.1)
numpy:  /home/vazumah/.conda/envs/GPAW/lib/python3.10/site-packages/numpy (version 1.24.1)
scipy:  /home/vazumah/.conda/envs/GPAW/lib/python3.10/site-packages/scipy (version 1.10.0)
libxc:  5.2.3
units:  Angstrom and eV
cores: 24
OpenMP: True
OMP_NUM_THREADS: 1

Input parameters:
  eigensolver: {name: dav,
                niter: 3}
  h: 0.16
  kpts: {size: [1, 1, 1]}
  maxiter: 999
  mixer: {backend: pulay,
          beta: 0.01,
          method: difference,
          nmaxold: 5,
          weight: 100}
  occupations: {name: fermi-dirac,
                width: 0.05}
  poissonsolver: {dipolelayer: xy}
  xc: BEEF-vdW

System changes: positions, numbers, cell, pbc, initial_charges, initial_magmoms 

Initialize ...

species:
  Ca:
    name: Calcium
    id: 0641b8f64fa1d43c6d3de45527ace046
    Z: 20.0
    valence: 10
    core: 10
    charge: 0.0
    file: /home/vazumah/.conda/envs/GPAW/share/gpaw/Ca.PBE.gz
    compensation charges: {type: gauss,
                           rc: 0.37,
                           lmax: 2}
    cutoffs: {filter: 2.10,
              core: 1.17}
    valence states:
      #              energy  rcut
      - 3s(2.00)   -47.086   1.175
      - 4s(2.00)    -3.766   1.175
      - 3p(6.00)   -28.008   1.154
      -  p          -0.797   1.154
      -  d           0.000   0.937
  
    # Using partial waves for Ca as LCAO basis

Reference energy: -666391.292358  # eV

Spin-paired calculation

Convergence criteria:
 Maximum [total energy] change in last 3 cyles: 0.0005 eV / electron
 Maximum integral of absolute [dens]ity change: 0.0001 electrons / valence electron
 Maximum integral of absolute [eigenst]ate change: 4e-08 eV^2 / valence electron
 Maximum number of scf [iter]ations: 999
 (Square brackets indicate name in SCF output, whereas a 'c' in
 the SCF output indicates the quantity has converged.)

Symmetries present (total): 8

  ( 1  0  0)  ( 1  0  0)  ( 0  1  0)  ( 0  1  0)  ( 0 -1  0)  ( 0 -1  0)
  ( 0  1  0)  ( 0 -1  0)  ( 1  0  0)  (-1  0  0)  ( 1  0  0)  (-1  0  0)
  ( 0  0  1)  ( 0  0  1)  ( 0  0  1)  ( 0  0  1)  ( 0  0  1)  ( 0  0  1)

  (-1  0  0)  (-1  0  0)
  ( 0  1  0)  ( 0 -1  0)
  ( 0  0  1)  ( 0  0  1)

1 k-point (Gamma)
1 k-point in the irreducible part of the Brillouin zone
       k-points in crystal coordinates                weights
   0:     0.00000000    0.00000000    0.00000000          1/1

Wave functions: Uniform real-space grid
  Kinetic energy operator: 6*3+1=19 point O(h^6) finite-difference Laplacian
  ScaLapack parameters: grid=1x1, blocksize=None
  Wavefunction extrapolation:
    Improved wavefunction reuse through dual PAW basis 

Occupation numbers: Fermi-Dirac:
  width: 0.0500  # eV
 

Eigensolver
   Davidson(niter=3) 

Densities:
  Coarse grid: 72*72*176 grid
  Fine grid: 144*144*352 grid
  Total Charge: 0.000000 

Density mixing:
  Method: separate
  Backend: pulay
  Linear mixing parameter: 0.01
  old densities: 5
  Damping of long wavelength oscillations: 100 

Hamiltonian:
  XC and Coulomb potentials evaluated on a 144*144*352 grid
  Using the BEEF-vdW Exchange-Correlation functional
  Interpolation: tri-quintic (5. degree polynomial)
  Poisson solver: FastPoissonSolver using
    Stencil: 6*3+1=19 point O(h^6) finite-difference Laplacian
    FFT axes: [0, 1]
    FST axes: [2]

Dipole correction along z-axis 

XC parameters: BEEF-vdW with 2 nearest neighbor stencil

Memory estimate:
  Process memory now: 107.91 MiB
  Calculator: 134.79 MiB
    Density: 20.62 MiB
      Arrays: 7.46 MiB
      Localized functions: 10.29 MiB
      Mixer: 2.87 MiB
    Hamiltonian: 5.69 MiB
      Arrays: 4.87 MiB
      XC: 0.00 MiB
      Poisson: 0.00 MiB
      vbar: 0.81 MiB
    Wavefunctions: 108.49 MiB
      Arrays psit_nG: 51.61 MiB
      Eigensolver: 55.52 MiB
      Projections: 0.03 MiB
      Projectors: 1.32 MiB

Total number of cores used: 24
Domain decomposition: 2 x 2 x 6

Number of atoms: 36
Number of atomic orbitals: 180
Number of bands in calculation: 180
Number of valence electrons: 360
Bands to converge: occupied

... initialized

Initializing position-dependent things.

Density initialized from atomic densities
Creating initial wave functions:
  180 bands from LCAO basis set

        .----------------------------.  
       /|                            |  
      / |                            |  
     /  |                            |  
    /   |                            |  
   /    |                            |  
  /     |                            |  
 *      |                            |  
 |      |                            |  
 |      |                            |  
 |      |                            |  
 |      |                            |  
 |      |                            |  
 |      |                            |  
 |      |                            |  
 |    Ca|      Ca        Ca          |  
 |      |                            |  
 | Ca   |   CCa      CaCa      Ca    |  
 |      |                            |  
 Ca     |CaCa      CCa       Ca      |  
 |      |                            |  
 |      |                            |  
 |    CCa      CaCa      CCa         |  
 |      |                            |  
 | Ca   |   CCa      CaCa      Ca    |  
 |      |                            |  
 Ca     |CaCa      CCa       Ca      |  
 |      |                            |  
 |     Ca        Ca       Ca         |  
 |      |                            |  
 |      |                            |  
 |      |                            |  
 |      |                            |  
 |      |                            |  
 |      |                            |  
 |      .----------------------------.  
 |     /                            /   
 |    /                            /    
 |   /                            /     
 |  /                            /      
 | /                            /       
 |/                            /        
 *----------------------------*         

Positions:
   0 Ca     1.972828    1.972828   10.000000    ( 0.0000,  0.0000,  0.0000)
   1 Ca     5.918484    1.972828   10.000000    ( 0.0000,  0.0000,  0.0000)
   2 Ca     9.864140    1.972828   10.000000    ( 0.0000,  0.0000,  0.0000)
   3 Ca     1.972828    5.918484   10.000000    ( 0.0000,  0.0000,  0.0000)
   4 Ca     5.918484    5.918484   10.000000    ( 0.0000,  0.0000,  0.0000)
   5 Ca     9.864140    5.918484   10.000000    ( 0.0000,  0.0000,  0.0000)
   6 Ca     1.972828    9.864140   10.000000    ( 0.0000,  0.0000,  0.0000)
   7 Ca     5.918484    9.864140   10.000000    ( 0.0000,  0.0000,  0.0000)
   8 Ca     9.864140    9.864140   10.000000    ( 0.0000,  0.0000,  0.0000)
   9 Ca     0.000000    0.000000   12.790000    ( 0.0000,  0.0000,  0.0000)
  10 Ca     3.945656    0.000000   12.790000    ( 0.0000,  0.0000,  0.0000)
  11 Ca     7.891312    0.000000   12.790000    ( 0.0000,  0.0000,  0.0000)
  12 Ca     0.000000    3.945656   12.790000    ( 0.0000,  0.0000,  0.0000)
  13 Ca     3.945656    3.945656   12.790000    ( 0.0000,  0.0000,  0.0000)
  14 Ca     7.891312    3.945656   12.790000    ( 0.0000,  0.0000,  0.0000)
  15 Ca     0.000000    7.891312   12.790000    ( 0.0000,  0.0000,  0.0000)
  16 Ca     3.945656    7.891312   12.790000    ( 0.0000,  0.0000,  0.0000)
  17 Ca     7.891312    7.891312   12.790000    ( 0.0000,  0.0000,  0.0000)
  18 Ca     1.972828    1.972828   15.580000    ( 0.0000,  0.0000,  0.0000)
  19 Ca     5.918484    1.972828   15.580000    ( 0.0000,  0.0000,  0.0000)
  20 Ca     9.864140    1.972828   15.580000    ( 0.0000,  0.0000,  0.0000)
  21 Ca     1.972828    5.918484   15.580000    ( 0.0000,  0.0000,  0.0000)
  22 Ca     5.918484    5.918484   15.580000    ( 0.0000,  0.0000,  0.0000)
  23 Ca     9.864140    5.918484   15.580000    ( 0.0000,  0.0000,  0.0000)
  24 Ca     1.972828    9.864140   15.580000    ( 0.0000,  0.0000,  0.0000)
  25 Ca     5.918484    9.864140   15.580000    ( 0.0000,  0.0000,  0.0000)
  26 Ca     9.864140    9.864140   15.580000    ( 0.0000,  0.0000,  0.0000)
  27 Ca     0.000000    0.000000   18.370000    ( 0.0000,  0.0000,  0.0000)
  28 Ca     3.945656    0.000000   18.370000    ( 0.0000,  0.0000,  0.0000)
  29 Ca     7.891312    0.000000   18.370000    ( 0.0000,  0.0000,  0.0000)
  30 Ca     0.000000    3.945656   18.370000    ( 0.0000,  0.0000,  0.0000)
  31 Ca     3.945656    3.945656   18.370000    ( 0.0000,  0.0000,  0.0000)
  32 Ca     7.891312    3.945656   18.370000    ( 0.0000,  0.0000,  0.0000)
  33 Ca     0.000000    7.891312   18.370000    ( 0.0000,  0.0000,  0.0000)
  34 Ca     3.945656    7.891312   18.370000    ( 0.0000,  0.0000,  0.0000)
  35 Ca     7.891312    7.891312   18.370000    ( 0.0000,  0.0000,  0.0000)

Unit cell:
           periodic     x           y           z      points  spacing
  1. axis:    yes   11.836968    0.000000    0.000000    72     0.1644
  2. axis:    yes    0.000000   11.836968    0.000000    72     0.1644
  3. axis:    no     0.000000    0.000000   28.370000   176     0.1612

  Lengths:  11.836968  11.836968  28.370000
  Angles:   90.000000  90.000000  90.000000

Effective grid spacing dv^(1/3) = 0.1633

     iter     time        total  log10-change:
                         energy  eigst   dens
iter:   1 09:20:29 -1553.009913
iter:   2 09:25:23 -1561.953616  +0.75  -1.65
iter:   3 09:30:26 -1567.758304  +0.43  -1.65
iter:   4 09:35:32 -1572.259498  +0.46  -1.63
Writing to output.gpw (mode='')

iter:   5 09:40:38 -1601.588206  +0.27  -1.59
iter:   6 09:45:44 -1610.838006  +0.95  -1.24
iter:   7 09:50:49 -1621.815513  +0.03  -1.17
iter:   8 09:56:10 -1623.603902  +0.45  -1.10
iter:   9 10:01:15 -1619.579680  -0.21  -1.07
Writing to output.gpw (mode='')

iter:  10 10:06:16 -1620.519755  -0.22  -1.07
iter:  11 10:11:14 -1588.148498  -0.40  -1.06
iter:  12 10:16:19 -1571.229508  +0.23  -1.18
iter:  13 10:21:30 -1576.659310  +0.82  -1.51
iter:  14 10:26:38 -1582.005209  +0.26  -1.70
Writing to output.gpw (mode='')

iter:  15 10:31:35 -1583.586357  -0.05  -1.81
iter:  16 10:36:40 -1585.430203  -0.29  -1.84
iter:  17 10:41:46 -1586.861694  +0.15  -1.86
iter:  18 10:46:53 -1590.059371  -0.24  -1.76
iter:  19 10:52:10 -1590.577898  +0.06  -1.59
Writing to output.gpw (mode='')

iter:  20 10:57:18 -1588.593674  -0.58  -1.52
iter:  21 11:02:27 -1586.995884  -0.79  -1.51
iter:  22 11:07:44 -1594.122819  -0.52  -1.54
iter:  23 11:12:56 -1595.646918  -0.21  -1.36
iter:  24 11:18:09 -1588.036231  -0.73  -1.32
Writing to output.gpw (mode='')

iter:  25 11:23:13 -1586.992574  -0.83  -1.37
iter:  26 11:28:31 -1583.252228  -0.43  -1.40
iter:  27 11:33:45 -1584.783859  +0.06  -1.67
iter:  28 11:38:54 -1586.366460  -0.95  -1.70
iter:  29 11:44:08 -1586.508128  -1.38  -1.71
Writing to output.gpw (mode='')

iter:  30 11:49:17 -1586.380294c -1.41  -1.70
iter:  31 11:54:17 -1593.480590  -0.50  -1.69
iter:  32 11:59:12 -1596.367718  -0.43  -1.38
iter:  33 12:04:26 -1590.098798  -0.85  -1.34
iter:  34 12:09:41 -1597.655042  -0.70  -1.37
Writing to output.gpw (mode='')

iter:  35 12:14:53 -1589.350735  -0.74  -1.28
iter:  36 12:19:50 -1589.093160  -1.13  -1.31
iter:  37 12:24:49 -1591.348948  -1.21  -1.33
iter:  38 12:29:57 -1582.710113  -0.18  -1.32
iter:  39 12:35:02 -1583.083940  -0.08  -1.58
Writing to output.gpw (mode='')

iter:  40 12:40:00 -1585.148947  -0.59  -1.64
iter:  41 12:45:05 -1591.201449  -0.52  -1.71
iter:  42 12:50:12 -1589.429023  -0.71  -1.48
iter:  43 12:55:25 -1592.620447  -1.17  -1.48
iter:  44 13:00:23 -1591.310312  -0.93  -1.38
Writing to output.gpw (mode='')

iter:  45 13:05:40 -1589.763208  -1.71  -1.37
iter:  46 13:10:48 -1598.174501  -0.50  -1.38
iter:  47 13:15:50 -1588.630073  -0.75  -1.26
iter:  48 13:20:53 -1589.709345  -1.02  -1.30
iter:  49 13:25:53 -1583.930455  -0.44  -1.29
Writing to output.gpw (mode='')

iter:  50 13:31:11 -1584.466245  -0.53  -1.48
iter:  51 13:36:10 -1583.164130  -0.68  -1.52
iter:  52 13:41:14 -1584.530103  -0.23  -1.60
iter:  53 13:46:18 -1585.656737  -0.75  -1.64
iter:  54 13:51:30 -1586.784012  -0.95  -1.65
Writing to output.gpw (mode='')

iter:  55 13:56:49 -1585.929437  -1.16  -1.64
iter:  56 14:01:54 -1585.791095  -1.31  -1.67
iter:  57 14:07:01 -1585.718385  -1.63  -1.69
iter:  58 14:11:54 -1585.689541c -0.86  -1.68
iter:  59 14:16:54 -1585.750417c -0.95  -1.72
Writing to output.gpw (mode='')

iter:  60 14:22:02 -1585.805308c -1.74  -1.73
iter:  61 14:27:04 -1590.503625  -0.34  -1.74
iter:  62 14:32:11 -1588.486529  -0.81  -1.49
iter:  63 14:37:17 -1584.787705  -1.06  -1.50
iter:  64 14:42:16 -1586.122614  -1.82  -1.69
Writing to output.gpw (mode='')

iter:  65 14:47:35 -1586.974100  -0.50  -1.67
iter:  66 14:52:37 -1586.272548  -0.64  -1.76
iter:  67 14:57:49 -1587.156952  -0.17  -1.85
iter:  68 15:02:52 -1587.661192  -0.73  -1.78
iter:  69 15:08:03 -1586.676569  -1.26  -1.71
Writing to output.gpw (mode='')

iter:  70 15:13:07 -1587.380778  -0.59  -1.77
iter:  71 15:18:14 -1587.755810  -0.64  -1.82
iter:  72 15:23:22 -1585.600200  -0.96  -1.78
iter:  73 15:28:17 -1586.202152  -0.73  -2.05
iter:  74 15:33:17 -1586.859182  -0.23  -2.24
Writing to output.gpw (mode='')

iter:  75 15:38:25 -1587.035384  -0.89  -2.08
iter:  76 15:43:32 -1587.043371  -0.84  -1.96
iter:  77 15:48:51 -1586.282319  -1.60  -1.91
iter:  78 15:53:48 -1586.482220  -2.12  -1.99
iter:  79 15:59:04 -1586.262727  -2.08  -1.95
Writing to output.gpw (mode='')

iter:  80 16:04:18 -1585.996407  -2.32  -1.99
iter:  81 16:09:36 -1585.819338  -1.46  -2.06
iter:  82 16:14:56 -1586.048349  -1.74  -2.31
iter:  83 16:19:53 -1586.249185  -2.18  -2.43
iter:  84 16:25:03 -1586.346392  -1.57  -2.22
Writing to output.gpw (mode='')

iter:  85 16:30:05 -1585.869032  -1.77  -2.14
iter:  86 16:35:12 -1585.928086  -1.24  -2.49
iter:  87 16:40:09 -1585.967948c -1.85  -2.58
iter:  88 16:45:17 -1585.997046c -2.28  -2.65
iter:  89 16:50:34 -1585.995838c -2.92  -2.66
Writing to output.gpw (mode='')

iter:  90 16:55:42 -1586.117455c -2.00  -2.69
iter:  91 17:00:52 -1586.226436  -1.48  -2.33
iter:  92 17:06:00 -1586.266144c -1.62  -2.21
iter:  93 17:11:02 -1586.027981  -2.15  -2.16
iter:  94 17:16:12 -1586.029552  -2.33  -2.27
Writing to output.gpw (mode='')

iter:  95 17:21:15 -1585.993963c -2.43  -2.30
iter:  96 17:26:15 -1586.188600  -2.04  -2.44
iter:  97 17:31:22 -1586.140470  -1.93  -2.25
iter:  98 17:36:24 -1586.021935c -2.60  -2.24
iter:  99 17:41:26 -1585.991522c -2.27  -2.32
Writing to output.gpw (mode='')

iter: 100 17:46:45 -1585.985762c -2.04  -2.38
iter: 101 17:51:51 -1586.002290c -2.07  -2.47
iter: 102 17:56:45 -1586.012868c -2.21  -2.50
iter: 103 18:01:37 -1586.033968c -1.93  -2.71
iter: 104 18:06:45 -1586.033324c -2.39  -2.69
Writing to output.gpw (mode='')

iter: 105 18:11:57 -1586.036445c -2.83  -2.70
iter: 106 18:17:03 -1586.042281c -2.77  -2.67
iter: 107 18:21:59 -1586.040221c -2.94  -2.63
iter: 108 18:27:11 -1586.033141c -3.34  -2.63
iter: 109 18:31:18 -1586.017748c -2.66  -2.66
Writing to output.gpw (mode='')

iter: 110 18:36:28 -1586.020616c -2.80  -3.07
iter: 111 18:41:31 -1586.022690c -2.92  -3.10
iter: 112 18:46:31 -1586.035267c -2.94  -3.08
iter: 113 18:51:23 -1586.039347c -2.40  -2.87
iter: 114 18:56:42 -1586.043394c -2.96  -2.78
Writing to output.gpw (mode='')

iter: 115 19:01:45 -1586.044573c -2.68  -2.71
iter: 116 19:07:10 -1586.045927c -3.16  -2.67
iter: 117 19:12:14 -1586.053533c -2.89  -2.64
iter: 118 19:17:35 -1586.047776c -2.87  -2.59
iter: 119 19:22:42 -1586.045747c -3.27  -2.57
Writing to output.gpw (mode='')

iter: 120 19:28:00 -1586.032453c -3.19  -2.57
iter: 121 19:33:04 -1586.022549c -2.80  -2.62
iter: 122 19:38:03 -1586.025479c -2.56  -2.79
iter: 123 19:43:18 -1586.033618c -3.07  -2.84
iter: 124 19:48:21 -1586.051453c -2.79  -2.80
Writing to output.gpw (mode='')

iter: 125 19:53:42 -1586.042503c -2.77  -2.70
iter: 126 19:59:14 -1586.041105c -3.28  -2.70
iter: 127 20:04:07 -1586.027916c -2.79  -2.70
iter: 128 20:09:16 -1586.030070c -2.81  -2.82
iter: 129 20:14:20 -1586.029656c -3.35  -2.82
Writing to output.gpw (mode='')

iter: 130 20:19:32 -1586.029494c -3.34  -2.89
iter: 131 20:24:31 -1586.029955c -3.71  -2.92
iter: 132 20:29:45 -1586.030999c -3.48  -2.96
iter: 133 20:35:07 -1586.041598c -2.84  -3.01
iter: 134 20:40:07 -1586.034929c -3.29  -2.81
Writing to output.gpw (mode='')

iter: 135 20:45:16 -1586.039777c -3.49  -2.82
iter: 136 20:50:16 -1586.030531c -3.08  -2.79
iter: 137 20:55:34 -1586.040093c -3.11  -2.96
iter: 138 21:00:41 -1586.030954c -3.09  -2.84
iter: 139 21:05:37 -1586.037576c -3.53  -2.87
Writing to output.gpw (mode='')

iter: 140 21:10:31 -1586.033815c -3.74  -2.88
iter: 141 21:15:43 -1586.038533c -3.67  -2.94
iter: 142 21:20:49 -1586.040626c -3.21  -2.86
iter: 143 21:25:58 -1586.031539c -3.01  -2.80
iter: 144 21:31:02 -1586.034735c -3.21  -2.97
Writing to output.gpw (mode='')

iter: 145 21:36:20 -1586.035032c -3.62  -3.02
iter: 146 21:41:25 -1586.037190c -3.38  -3.08
iter: 147 21:46:37 -1586.038168c -3.11  -2.99
iter: 148 21:51:44 -1586.042329c -3.37  -2.95
iter: 149 21:56:48 -1586.047178c -2.89  -2.85
Writing to output.gpw (mode='')

iter: 150 22:02:07 -1586.051616c -3.15  -2.78
iter: 151 22:07:10 -1586.049505c -3.03  -2.72
iter: 152 22:12:15 -1586.040108c -3.54  -2.68
iter: 153 22:17:25 -1586.039358c -3.69  -2.74
iter: 154 22:22:21 -1586.065312c -3.12  -2.75
Writing to output.gpw (mode='')

iter: 155 22:27:31 -1586.023838c -2.63  -2.57
iter: 156 22:32:36 -1586.037135c -3.33  -2.80
iter: 157 22:37:43 -1586.033737c -3.49  -2.80
iter: 158 22:42:40 -1586.040160c -3.33  -2.94
iter: 159 22:47:43 -1586.034760c -3.35  -2.86
Writing to output.gpw (mode='')

iter: 160 22:52:46 -1586.035849c -3.11  -2.98
iter: 161 22:57:48 -1586.037550c -3.57  -3.01
iter: 162 23:02:50 -1586.037556c -3.79  -2.95
iter: 163 23:07:40 -1586.038466c -4.02  -2.95
iter: 164 23:12:45 -1586.036815c -3.98  -2.92
Writing to output.gpw (mode='')

iter: 165 23:17:47 -1586.050205c -3.17  -2.94
iter: 166 23:22:47 -1586.049008c -3.23  -2.71
iter: 167 23:27:49 -1586.051606c -3.24  -2.70
iter: 168 23:32:51 -1586.049602c -3.54  -2.65
iter: 169 23:37:52 -1586.062263c -2.66  -2.66
Writing to output.gpw (mode='')

iter: 170 23:43:02 -1586.037623c -2.70  -2.71
iter: 171 23:47:59 -1586.072831c -2.45  -2.75
iter: 172 23:53:10 -1586.047740c -3.18  -2.64
iter: 173 23:58:18 -1586.203428c -2.02  -2.69
iter: 174 00:03:22 -1586.114094c -2.54  -2.21
Writing to output.gpw (mode='')

iter: 175 00:08:28 -1586.210991c -2.60  -2.25
iter: 176 00:13:37 -1586.049118c -2.38  -2.17
iter: 177 00:18:41 -1586.010710  -2.44  -2.26
iter: 178 00:23:43 -1585.979621c -1.86  -2.35
iter: 179 00:28:50 -1586.027741c -1.47  -2.72
Writing to output.gpw (mode='')

iter: 180 00:33:50 -1586.036467c -1.94  -2.75
iter: 181 00:38:52 -1586.032265c -2.73  -2.85
iter: 182 00:43:45 -1586.034542c -2.99  -3.05
iter: 183 00:48:42 -1586.039441c -2.75  -3.28
iter: 184 00:53:51 -1586.041454c -2.96  -3.13
Writing to output.gpw (mode='')

iter: 185 00:58:50 -1586.040151c -3.28  -3.04
iter: 186 01:03:53 -1586.048812c -3.26  -3.00
iter: 187 01:09:06 -1586.048088c -3.18  -2.82
iter: 188 01:14:05 -1586.067970c -3.22  -2.80
iter: 189 01:19:08 -1586.066624c -2.88  -2.60
Writing to output.gpw (mode='')

iter: 190 01:24:17 -1586.071553c -3.44  -2.58
iter: 191 01:29:29 -1586.081075c -2.93  -2.54
iter: 192 01:34:34 -1586.061266c -3.58  -2.49
iter: 193 01:39:43 -1586.055532c -4.10  -2.51
iter: 194 01:44:52 -1586.051880c -3.98  -2.52
Writing to output.gpw (mode='')

iter: 195 01:49:52 -1586.051129c -4.00  -2.52
iter: 196 01:54:58 -1586.061805c -1.91  -2.51
iter: 197 01:59:53 -1586.025780c -2.31  -2.58
iter: 198 02:04:47 -1586.031170c -2.42  -2.96
iter: 199 02:09:50 -1586.034755c -2.75  -3.10
Writing to output.gpw (mode='')

iter: 200 02:14:56 -1586.036589c -2.91  -3.21
iter: 201 02:20:08 -1586.037530c -3.35  -3.22
iter: 202 02:25:12 -1586.041146c -3.21  -3.20
iter: 203 02:30:11 -1586.037217c -3.81  -3.06
iter: 204 02:35:23 -1586.037592c -4.34  -3.13
Writing to output.gpw (mode='')

iter: 205 02:40:27 -1586.036713c -4.37  -3.15
iter: 206 02:45:37 -1586.036973c -3.64  -3.19
iter: 207 02:50:56 -1586.040146c -3.15  -3.32
iter: 208 02:55:58 -1586.040461c -3.11  -3.17
iter: 209 03:01:06 -1586.036548c -3.83  -3.10
Writing to output.gpw (mode='')

iter: 210 03:06:07 -1586.037676c -4.12  -3.21
iter: 211 03:11:12 -1586.040418c -3.68  -3.19
iter: 212 03:16:08 -1586.036940c -3.87  -3.06
iter: 213 03:21:13 -1586.037415c -4.03  -3.12
iter: 214 03:26:20 -1586.046829c -3.36  -3.13
Writing to output.gpw (mode='')

iter: 215 03:31:24 -1586.049993c -3.21  -2.85
iter: 216 03:36:32 -1586.047949c -3.38  -2.79
iter: 217 03:41:34 -1586.038678c -3.67  -2.78
iter: 218 03:46:39 -1586.041530c -3.92  -2.84
iter: 219 03:51:51 -1586.045897c -3.92  -2.84
Writing to output.gpw (mode='')

iter: 220 03:57:02 -1586.072584c -3.14  -2.80
iter: 221 04:02:06 -1586.022835c -2.40  -2.60
iter: 222 04:07:12 -1586.033481c -2.27  -2.98
iter: 223 04:12:25 -1586.040767c -2.85  -3.19
iter: 224 04:17:27 -1586.037508c -3.75  -3.07
Writing to output.gpw (mode='')

iter: 225 04:22:32 -1586.047056c -3.28  -3.12
iter: 226 04:27:51 -1586.044214c -3.60  -2.82
iter: 227 04:32:54 -1586.046442c -4.01  -2.82
iter: 228 04:38:03 -1586.046388c -3.62  -2.78
iter: 229 04:43:05 -1586.038301c -3.90  -2.76
Writing to output.gpw (mode='')

iter: 230 04:48:22 -1586.041345c -4.19  -2.87
iter: 231 04:53:37 -1586.044368c -4.09  -2.86
iter: 232 04:58:38 -1586.041665c -2.69  -2.81
iter: 233 05:03:34 -1586.041241c -2.87  -3.11
iter: 234 05:08:30 -1586.036856c -3.48  -3.11
Writing to output.gpw (mode='')

iter: 235 05:13:47 -1586.037423c -3.35  -3.45
iter: 236 05:18:53 -1586.038363c -3.81  -3.47
iter: 237 05:23:59 -1586.037917c -4.57  -3.48
iter: 238 05:29:10 -1586.038992c -3.81  -3.52
iter: 239 05:34:22 -1586.039509c -3.66  -3.29
Writing to output.gpw (mode='')

iter: 240 05:39:29 -1586.039817c -3.92  -3.23
iter: 241 05:44:42 -1586.037257c -3.87  -3.20
iter: 242 05:49:54 -1586.037531c -3.83  -3.42
iter: 243 05:55:06 -1586.038707c -4.36  -3.47
iter: 244 06:00:16 -1586.038479c -4.59  -3.34
Writing to output.gpw (mode='')

iter: 245 06:05:26 -1586.038306c -5.13  -3.32
iter: 246 06:10:31 -1586.038290c -5.28  -3.32
iter: 247 06:15:35 -1586.041315c -3.92  -3.30
iter: 248 06:20:45 -1586.040687c -3.92  -3.07
iter: 249 06:25:51 -1586.038256c -4.38  -3.05
Writing to output.gpw (mode='')

iter: 250 06:31:03 -1586.037064c -3.49  -3.15
iter: 251 06:36:11 -1586.037863c -3.23  -3.64
iter: 252 06:41:14 -1586.038702c -3.57  -3.73
iter: 253 06:46:09 -1586.038922c -3.47  -3.57
iter: 254 06:51:10 -1586.039959c -3.72  -3.47
Writing to output.gpw (mode='')

iter: 255 06:56:28 -1586.040491c -3.54  -3.29
iter: 256 07:01:30 -1586.041008c -3.81  -3.22
iter: 257 07:06:34 -1586.041389c -3.64  -3.15
iter: 258 07:11:35 -1586.040249c -3.99  -3.10
iter: 259 07:16:40 -1586.038270c -4.24  -3.09
Writing to output.gpw (mode='')

iter: 260 07:22:02 -1586.037861c -3.98  -3.20
iter: 261 07:27:02 -1586.038447c -4.24  -3.37
iter: 262 07:32:04 -1586.038598c -4.40  -3.36
iter: 263 07:36:54 -1586.037881c -3.79  -3.38
iter: 264 07:41:55 -1586.037639c -3.68  -3.49
Writing to output.gpw (mode='')

iter: 265 07:46:57 -1586.038827c -3.56  -3.56
iter: 266 07:51:53 -1586.039116c -3.59  -3.55
iter: 267 07:56:45 -1586.038992c -3.94  -3.46
iter: 268 08:01:41 -1586.038856c -4.10  -3.43
iter: 269 08:06:40 -1586.038835c -4.44  -3.40
Writing to output.gpw (mode='')

iter: 270 08:11:40 -1586.046641c -3.37  -3.38
iter: 271 08:16:46 -1586.044165c -3.43  -2.92
iter: 272 08:21:50 -1586.043007c -3.88  -2.91
iter: 273 08:26:51 -1586.042322c -3.48  -2.96
iter: 274 08:31:51 -1586.042162c -3.67  -2.91
Writing to output.gpw (mode='')

iter: 275 08:36:57 -1586.068288c -2.83  -2.91
iter: 276 08:41:54 -1586.059868c -2.37  -2.72
iter: 277 08:47:09 -1586.033513c -2.61  -2.72
iter: 278 08:52:14 -1586.029024c -2.67  -2.79
iter: 279 08:57:17 -1586.030864c -2.81  -2.86
Writing to output.gpw (mode='')

iter: 280 09:02:30 -1586.031070c -2.90  -2.99
iter: 281 09:07:35 -1586.033780c -2.66  -3.25
iter: 282 09:12:42 -1586.038722c -2.52  -3.40
iter: 283 09:17:51 -1586.039204c -2.82  -3.40
iter: 284 09:23:01 -1586.037481c -3.72  -3.38
Writing to output.gpw (mode='')

iter: 285 09:28:12 -1586.037611c -4.01  -3.59
iter: 286 09:33:22 -1586.039782c -3.65  -3.65
iter: 287 09:38:28 -1586.039490c -3.83  -3.40
iter: 288 09:43:30 -1586.039037c -3.96  -3.36
iter: 289 09:48:39 -1586.037653c -4.31  -3.31
Writing to output.gpw (mode='')

iter: 290 09:53:45 -1586.037814c -4.10  -3.37
iter: 291 09:58:47 -1586.038405c -4.71  -3.51
iter: 292 10:03:51 -1586.039629c -4.32  -3.50
iter: 293 10:08:45 -1586.037179c -3.95  -3.36
iter: 294 10:13:53 -1586.037468c -3.75  -3.49
Writing to output.gpw (mode='')

iter: 295 10:18:40 -1586.040835c -3.17  -3.64
iter: 296 10:23:40 -1586.037449c -3.71  -3.36
iter: 297 10:28:32 -1586.037272c -4.29  -3.51
iter: 298 10:33:25 -1586.037597c -4.00  -3.67
iter: 299 10:38:33 -1586.037724c -4.62  -3.74
Writing to output.gpw (mode='')

iter: 300 10:43:38 -1586.037790c -4.39  -3.85
iter: 301 10:48:46 -1586.037817c -4.87  -3.86
iter: 302 10:53:53 -1586.038070c -4.91  -3.86
iter: 303 10:58:48 -1586.037874c -4.23  -3.68
iter: 304 11:03:56 -1586.037962c -4.16  -3.76
Writing to output.gpw (mode='')

iter: 305 11:08:55 -1586.037949c -4.45  -3.77
iter: 306 11:14:05 -1586.037915c -5.35  -3.76
iter: 307 11:19:16 -1586.037900c -4.86  -3.75
iter: 308 11:24:16 -1586.038893c -4.18  -3.79
iter: 309 11:29:18 -1586.039958c -3.58  -3.55
Writing to output.gpw (mode='')

iter: 310 11:34:29 -1586.039227c -4.01  -3.40
iter: 311 11:39:40 -1586.038556c -4.63  -3.39
iter: 312 11:44:41 -1586.041913c -3.92  -3.39
iter: 313 11:49:49 -1586.039042c -4.35  -3.17
iter: 314 11:54:55 -1586.038821c -4.91  -3.20
Writing to output.gpw (mode='')

iter: 315 11:59:55 -1586.040828c -4.60  -3.21
iter: 316 12:05:02 -1586.036827c -3.94  -3.15
iter: 317 12:10:16 -1586.039011c -3.16  -3.24
iter: 318 12:15:11 -1586.041008c -2.94  -3.46
iter: 319 12:20:10 -1586.038171c -3.66  -3.34
Writing to output.gpw (mode='')

iter: 320 12:25:21 -1586.039880c -3.30  -3.45
iter: 321 12:30:36 -1586.040527c -3.29  -3.47
iter: 322 12:35:55 -1586.040237c -3.58  -3.39
iter: 323 12:41:08 -1586.041872c -3.71  -3.32
iter: 324 12:46:14 -1586.039829c -3.98  -3.21
Writing to output.gpw (mode='')

iter: 325 12:51:04 -1586.040757c -4.42  -3.21
iter: 326 12:56:17 -1586.042748c -3.97  -3.17
iter: 327 13:01:26 -1586.041142c -3.99  -3.09
iter: 328 13:06:35 -1586.038871c -4.81  -3.08
iter: 329 13:11:44 -1586.038472c -4.63  -3.12
Writing to output.gpw (mode='')

iter: 330 13:16:48 -1586.041217c -4.55  -3.14
iter: 331 13:21:58 -1586.043482c -2.70  -3.09
iter: 332 13:26:58 -1586.037525c -3.12  -3.18
iter: 333 13:32:02 -1586.036669c -3.61  -3.37
iter: 334 13:37:06 -1586.037098c -3.41  -3.59
Writing to output.gpw (mode='')

iter: 335 13:42:18 -1586.037495c -3.73  -3.80
iter: 336 13:47:24 -1586.037725c -3.97  -4.00
iter: 337 13:52:23 -1586.037926c -4.02  -4.08c
iter: 338 13:57:34 -1586.037977c -4.19  -4.02c
iter: 339 14:02:38 -1586.038578c -4.08  -3.92
Writing to output.gpw (mode='')

iter: 340 14:07:38 -1586.038572c -4.15  -3.60
iter: 341 14:12:35 -1586.038432c -4.50  -3.55
iter: 342 14:17:30 -1586.038371c -4.76  -3.52
iter: 343 14:22:34 -1586.037973c -4.97  -3.50
iter: 344 14:27:37 -1586.040431c -4.06  -3.54
Writing to output.gpw (mode='')

iter: 345 14:32:44 -1586.037431c -4.07  -3.27
iter: 346 14:37:54 -1586.037322c -4.25  -3.34
iter: 347 14:43:04 -1586.036837c -3.81  -3.41
iter: 348 14:48:02 -1586.037201c -3.78  -3.57
iter: 349 14:53:14 -1586.037809c -4.14  -3.68
Writing to output.gpw (mode='')

iter: 350 14:58:25 -1586.037675c -4.44  -3.64
iter: 351 15:03:37 -1586.037580c -4.32  -3.67
iter: 352 15:08:40 -1586.037616c -4.40  -3.82
iter: 353 15:13:47 -1586.037702c -4.32  -3.92
iter: 354 15:18:37 -1586.037800c -4.32  -4.04c
Writing to output.gpw (mode='')

iter: 355 15:23:57 -1586.037822c -5.20  -4.05c
iter: 356 15:29:01 -1586.037815c -5.48  -4.03c
iter: 357 15:34:02 -1586.037929c -4.77  -4.05c
iter: 358 15:39:10 -1586.037958c -4.21  -3.98
iter: 359 15:44:17 -1586.038880c -3.87  -3.94
Writing to output.gpw (mode='')

iter: 360 15:49:30 -1586.037561c -3.60  -3.61
iter: 361 15:54:25 -1586.038147c -4.29  -3.92
iter: 362 15:59:32 -1586.038028c -4.86  -3.76
iter: 363 16:04:38 -1586.037745c -4.80  -3.73
iter: 364 16:09:33 -1586.039926c -3.71  -3.85
Writing to output.gpw (mode='')

iter: 365 16:14:31 -1586.037232c -3.65  -3.43
iter: 366 16:19:18 -1586.037370c -4.23  -3.60
iter: 367 16:24:22 -1586.037814c -4.68  -3.70
iter: 368 16:29:19 -1586.037722c -4.82  -3.71
iter: 369 16:34:19 -1586.037799c -4.30  -3.89
Writing to output.gpw (mode='')

iter: 370 16:39:24 -1586.037828c -4.46  -4.04c
iter: 371 16:44:21 -1586.037833c -5.13  -4.05c
iter: 372 16:49:36 -1586.037964c -4.83  -4.04c
iter: 373 16:54:46 -1586.037985c -4.67  -3.91
iter: 374 16:59:54 -1586.037993c -5.15  -3.84
Writing to output.gpw (mode='')

iter: 375 17:05:00 -1586.038125c -4.62  -3.80
iter: 376 17:10:07 -1586.037663c -4.71  -3.64
iter: 377 17:15:01 -1586.037680c -4.41  -3.80
iter: 378 17:20:14 -1586.037788c -5.05  -3.91
iter: 379 17:25:26 -1586.038000c -4.49  -3.97
Writing to output.gpw (mode='')

iter: 380 17:30:42 -1586.037857c -4.83  -3.97
iter: 381 17:35:39 -1586.037903c -5.15  -4.07c
iter: 382 17:40:59 -1586.037787c -5.07  -4.01c
iter: 383 17:46:26 -1586.037809c -5.28  -4.16c
iter: 384 17:51:48 -1586.037852c -4.96  -4.21c
Writing to output.gpw (mode='')

iter: 385 17:57:01 -1586.037826c -5.28  -4.23c
iter: 386 18:02:16 -1586.037854c -5.80  -4.22c
iter: 387 18:07:29 -1586.037860c -5.26  -4.16c
iter: 388 18:12:47 -1586.037837c -5.99  -4.12c
iter: 389 18:18:16 -1586.037826c -6.39  -4.11c
Writing to output.gpw (mode='')

iter: 390 18:23:30 -1586.037814c -5.80  -4.16c
iter: 391 18:28:45 -1586.037862c -5.33  -4.24c
iter: 392 18:33:56 -1586.037814c -5.46  -4.15c
iter: 393 18:39:20 -1586.037823c -5.55  -4.21c
iter: 394 18:44:37 -1586.037826c -5.91  -4.30c
Writing to output.gpw (mode='')

iter: 395 18:49:43 -1586.037820c -5.64  -4.29c
iter: 396 18:54:54 -1586.037821c -5.97  -4.30c
iter: 397 19:00:11 -1586.037832c -5.85  -4.29c
iter: 398 19:05:24 -1586.037880c -4.91  -4.28c
iter: 399 19:10:29 -1586.037904c -4.63  -4.18c
Writing to output.gpw (mode='')

iter: 400 19:15:42 -1586.037857c -5.26  -4.10c
iter: 401 19:20:52 -1586.037806c -5.32  -4.10c
iter: 402 19:25:45 -1586.037818c -5.80  -4.32c
iter: 403 19:30:47 -1586.037818c -6.21  -4.34c
iter: 404 19:35:56 -1586.037828c -6.07  -4.33c
Writing to output.gpw (mode='')

iter: 405 19:41:13 -1586.037833c -5.84  -4.27c
iter: 406 19:46:29 -1586.037827c -5.82  -4.18c
iter: 407 19:51:26 -1586.037818c -6.04  -4.20c
iter: 408 19:56:36 -1586.037817c -6.08  -4.33c
iter: 409 20:01:42 -1586.037834c -5.65  -4.36c
Writing to output.gpw (mode='')

iter: 410 20:06:46 -1586.037812c -5.74  -4.24c
iter: 411 20:12:11 -1586.037816c -5.76  -4.33c
iter: 412 20:17:09 -1586.037820c -5.45  -4.41c
iter: 413 20:22:18 -1586.037828c -5.83  -4.42c
iter: 414 20:27:22 -1586.037825c -6.18  -4.38c
Writing to output.gpw (mode='')

iter: 415 20:32:29 -1586.037937c -5.11  -4.36c
iter: 416 20:37:47 -1586.038040c -4.68  -4.02c
iter: 417 20:43:04 -1586.037879c -5.46  -3.90
iter: 418 20:48:08 -1586.038068c -5.19  -3.92
iter: 419 20:53:03 -1586.038240c -4.79  -3.77
Writing to output.gpw (mode='')

iter: 420 20:58:14 -1586.038894c -4.26  -3.67
iter: 421 21:03:16 -1586.038053c -4.91  -3.52
iter: 422 21:08:31 -1586.037564c -4.43  -3.55
iter: 423 21:13:49 -1586.037703c -4.58  -3.82
iter: 424 21:18:52 -1586.038306c -4.71  -3.86
Writing to output.gpw (mode='')

iter: 425 21:24:10 -1586.038901c -4.27  -3.64
iter: 426 21:29:22 -1586.037841c -4.93  -3.51
iter: 427 21:34:22 -1586.038994c -4.64  -3.58
iter: 428 21:39:31 -1586.039493c -4.04  -3.42
iter: 429 21:44:27 -1586.038772c -4.66  -3.36
Writing to output.gpw (mode='')

iter: 430 21:49:32 -1586.038292c -5.10  -3.35
iter: 431 21:54:33 -1586.038213c -5.22  -3.38
iter: 432 21:59:41 -1586.041168c -4.12  -3.39
iter: 433 22:04:40 -1586.038845c -4.43  -3.17
iter: 434 22:09:46 -1586.036347c -3.64  -3.20
Writing to output.gpw (mode='')

iter: 435 22:15:01 -1586.037008c -3.84  -3.49
iter: 436 22:19:52 -1586.037615c -3.62  -3.56
iter: 437 22:24:55 -1586.037664c -3.82  -3.76
iter: 438 22:30:04 -1586.037883c -4.07  -3.97
iter: 439 22:35:03 -1586.038228c -3.91  -3.92
Writing to output.gpw (mode='')

iter: 440 22:40:14 -1586.037798c -4.50  -3.82
iter: 441 22:45:30 -1586.037771c -4.86  -3.94
iter: 442 22:51:00 -1586.037976c -4.67  -4.03c
iter: 443 22:56:18 -1586.037822c -4.16  -3.82
iter: 444 23:01:25 -1586.037887c -4.21  -4.23c
Writing to output.gpw (mode='')

iter: 445 23:06:40 -1586.037813c -5.17  -4.18c
iter: 446 23:11:35 -1586.037804c -5.39  -4.27c
iter: 447 23:16:45 -1586.037811c -5.32  -4.46c
iter: 448 23:21:42 -1586.037814c -5.58  -4.45c
iter: 449 23:26:41 -1586.037831c -5.78  -4.51c
Writing to output.gpw (mode='')

iter: 450 23:31:39 -1586.037815c -6.06  -4.37c
iter: 451 23:36:29 -1586.037827c -5.65  -4.46c
iter: 452 23:41:34 -1586.037821c -5.85  -4.43c
iter: 453 23:46:35 -1586.037814c -6.03  -4.43c
iter: 454 23:51:44 -1586.037816c -5.80  -4.56c
Writing to output.gpw (mode='')

iter: 455 23:56:54 -1586.037820c -6.03  -4.56c
iter: 456 00:01:49 -1586.037817c -6.43  -4.55c
iter: 457 00:07:07 -1586.037831c -5.82  -4.78c
iter: 458 00:12:21 -1586.037829c -5.85  -4.56c
iter: 459 00:17:38 -1586.037854c -5.86  -4.52c
Writing to output.gpw (mode='')

iter: 460 00:22:47 -1586.037852c -5.47  -4.26c
iter: 461 00:27:47 -1586.037846c -6.15  -4.22c
iter: 462 00:32:48 -1586.037871c -5.88  -4.19c
iter: 463 00:37:58 -1586.037897c -5.66  -4.10c
iter: 464 00:43:09 -1586.037835c -6.16  -4.03c
Writing to output.gpw (mode='')

iter: 465 00:48:15 -1586.037807c -6.18  -4.07c
iter: 466 00:53:33 -1586.037832c -6.65  -4.20c
iter: 467 00:59:02 -1586.037856c -6.37  -4.18c
iter: 468 01:04:16 -1586.037861c -6.00  -4.06c
iter: 469 01:09:46 -1586.037789c -5.58  -4.04c
Writing to output.gpw (mode='')

iter: 470 01:15:14 -1586.037804c -4.91  -4.43c
iter: 471 01:20:28 -1586.037821c -5.01  -4.68c
iter: 472 01:25:49 -1586.037817c -5.95  -4.63c
iter: 473 01:31:03 -1586.037818c -6.50  -4.76c
iter: 474 01:36:15 -1586.037818c -6.25  -4.78c
Writing to output.gpw (mode='')

iter: 475 01:41:23 -1586.037819c -6.26  -4.83c
iter: 476 01:46:34 -1586.037819c -6.63  -4.86c
iter: 477 01:51:39 -1586.037820c -6.56  -4.87c
iter: 478 01:56:44 -1586.037819c -6.51  -4.83c
iter: 479 02:01:50 -1586.037820c -6.89  -4.81c
Writing to output.gpw (mode='')

iter: 480 02:06:54 -1586.037818c -6.45  -4.76c
iter: 481 02:12:17 -1586.037818c -6.65  -4.88c
iter: 482 02:17:35 -1586.037823c -6.40  -4.91c
iter: 483 02:22:52 -1586.037822c -6.38  -4.72c
iter: 484 02:28:10 -1586.037824c -6.73  -4.68c
Writing to output.gpw (mode='')

iter: 485 02:33:17 -1586.037827c -6.32  -4.59c
iter: 486 02:38:32 -1586.037826c -6.41  -4.49c
iter: 487 02:43:25 -1586.037831c -6.50  -4.46c
iter: 488 02:48:33 -1586.037816c -6.29  -4.37c
iter: 489 02:53:20 -1586.037816c -6.17  -4.49c
Writing to output.gpw (mode='')

iter: 490 02:58:22 -1586.037818c -5.85  -4.56c
iter: 491 03:03:23 -1586.037818c -6.55  -4.68c
iter: 492 03:08:09 -1586.037818c -7.11  -4.79c
iter: 493 03:13:11 -1586.037822c -6.49  -4.82c
iter: 494 03:18:22 -1586.037820c -6.60  -4.72c
Writing to output.gpw (mode='')

iter: 495 03:23:45 -1586.037825c -5.88  -4.75c
iter: 496 03:29:15 -1586.037820c -6.42  -4.71c
iter: 497 03:34:26 -1586.037820c -7.21  -4.75c
iter: 498 03:39:25 -1586.037824c -6.42  -4.74c
iter: 499 03:44:34 -1586.037827c -6.26  -4.61c
Writing to output.gpw (mode='')

iter: 500 03:49:33 -1586.037825c -6.42  -4.53c
iter: 501 03:54:45 -1586.037816c -6.16  -4.50c
iter: 502 03:59:58 -1586.037817c -6.13  -4.90c
iter: 503 04:05:11 -1586.037818c -6.75  -5.01c
iter: 504 04:10:20 -1586.037826c -6.31  -5.08c
Writing to output.gpw (mode='')

iter: 505 04:15:28 -1586.037825c -6.30  -4.58c
iter: 506 04:20:28 -1586.037827c -6.61  -4.54c
iter: 507 04:25:34 -1586.037826c -6.52  -4.48c
iter: 508 04:30:44 -1586.037821c -7.23  -4.46c
iter: 509 04:35:46 -1586.037822c -7.64c -4.48c

Converged after 509 iterations.

Dipole moment: (-15.863552, -15.863552, -0.000867) |e|*Ang

Energy contributions relative to reference atoms: (reference = -666391.292358)

Kinetic:       +323.802242
Potential:     -219.424798
External:        +0.000000
XC:            -1672.939281
Entropy (-ST):   -0.000000
Local:          -17.475985
--------------------------
Free energy:   -1586.037822
Extrapolated:  -1586.037822

Dipole-layer corrected work functions: -inf, -inf eV

 Band  Eigenvalues  Occupancy
    0    -46.07305    2.00000
    1    -46.07194    2.00000
    2    -46.07037    2.00000
    3    -46.07037    2.00000
    4    -46.07037    2.00000
    5    -46.07037    2.00000
    6    -46.06926    2.00000
    7    -46.06926    2.00000
    8    -46.06926    2.00000
    9    -46.06926    2.00000
   10    -46.06773    2.00000
   11    -46.06773    2.00000
   12    -46.06773    2.00000
   13    -46.06773    2.00000
   14    -46.06662    2.00000
   15    -46.06662    2.00000
   16    -46.06662    2.00000
   17    -46.06662    2.00000
   18    -45.42331    2.00000
   19    -45.41874    2.00000
   20    -45.41874    2.00000
   21    -45.41874    2.00000
   22    -45.41874    2.00000
   23    -45.41599    2.00000
   24    -45.41510    2.00000
   25    -45.41510    2.00000
   26    -45.41510    2.00000
   27    -45.41510    2.00000
   28    -45.41505    2.00000
   29    -45.41505    2.00000
   30    -45.41505    2.00000
   31    -45.41505    2.00000
   32    -45.41319    2.00000
   33    -45.41319    2.00000
   34    -45.41319    2.00000
   35    -45.41319    2.00000
   36    -27.04218    2.00000
   37    -27.04109    2.00000
   38    -27.03775    2.00000
   39    -27.03775    2.00000
   40    -27.03775    2.00000
   41    -27.03775    2.00000
   42    -27.03666    2.00000
   43    -27.03666    2.00000
   44    -27.03666    2.00000
   45    -27.03666    2.00000
   46    -27.03316    2.00000
   47    -27.03316    2.00000
   48    -27.03316    2.00000
   49    -27.03316    2.00000
   50    -27.03207    2.00000
   51    -27.03207    2.00000
   52    -27.03207    2.00000
   53    -27.03207    2.00000
   54    -26.97276    2.00000
   55    -26.97276    2.00000
   56    -26.97276    2.00000
   57    -26.97276    2.00000
   58    -26.97166    2.00000
   59    -26.97166    2.00000
   60    -26.97166    2.00000
   61    -26.97166    2.00000
   62    -26.96846    2.00000
   63    -26.96846    2.00000
   64    -26.96846    2.00000
   65    -26.96846    2.00000
   66    -26.96769    2.00000
   67    -26.96769    2.00000
   68    -26.96769    2.00000
   69    -26.96769    2.00000
   70    -26.96735    2.00000
   71    -26.96735    2.00000
   72    -26.96735    2.00000
   73    -26.96735    2.00000
   74    -26.96659    2.00000
   75    -26.96659    2.00000
   76    -26.96659    2.00000
   77    -26.96659    2.00000
   78    -26.92844    2.00000
   79    -26.92844    2.00000
   80    -26.92734    2.00000
   81    -26.92734    2.00000
   82    -26.92473    2.00000
   83    -26.92473    2.00000
   84    -26.92473    2.00000
   85    -26.92473    2.00000
   86    -26.92362    2.00000
   87    -26.92362    2.00000
   88    -26.92362    2.00000
   89    -26.92362    2.00000
   90    -26.38066    2.00000
   91    -26.37969    2.00000
   92    -26.37969    2.00000
   93    -26.37969    2.00000
   94    -26.37969    2.00000
   95    -26.37577    2.00000
   96    -26.37577    2.00000
   97    -26.37577    2.00000
   98    -26.37577    2.00000
   99    -26.37530    2.00000
  100    -26.37530    2.00000
  101    -26.37530    2.00000
  102    -26.37530    2.00000
  103    -26.37078    2.00000
  104    -26.37078    2.00000
  105    -26.37078    2.00000
  106    -26.37078    2.00000
  107    -26.35705    2.00000
  108    -26.35705    2.00000
  109    -26.35705    2.00000
  110    -26.35705    2.00000
  111    -26.34284    2.00000
  112    -26.34284    2.00000
  113    -26.34284    2.00000
  114    -26.34284    2.00000
  115    -26.34076    2.00000
  116    -26.34076    2.00000
  117    -26.34076    2.00000
  118    -26.34076    2.00000
  119    -26.33842    2.00000
  120    -26.33842    2.00000
  121    -26.33842    2.00000
  122    -26.33842    2.00000
  123    -26.32795    2.00000
  124    -26.32795    2.00000
  125    -26.32795    2.00000
  126    -26.32795    2.00000
  127    -26.32667    2.00000
  128    -26.32570    2.00000
  129    -26.32570    2.00000
  130    -26.32570    2.00000
  131    -26.32570    2.00000
  132    -26.32561    2.00000
  133    -26.32561    2.00000
  134    -26.31665    2.00000
  135    -26.31665    2.00000
  136    -26.31665    2.00000
  137    -26.31665    2.00000
  138    -26.30607    2.00000
  139    -26.30607    2.00000
  140    -26.30607    2.00000
  141    -26.30607    2.00000
  142    -26.30448    2.00000
  143    -26.30448    2.00000
  144     -6.77394    2.00000
  145     -6.16154    2.00000
  146     -5.62939    2.00000
  147     -5.62939    2.00000
  148     -5.62939    2.00000
  149     -5.62939    2.00000
  150     -5.10316    2.00000
  151     -5.08111    2.00000
  152     -5.08111    2.00000
  153     -5.08111    2.00000
  154     -5.08111    2.00000
  155     -4.62465    2.00000
  156     -4.62465    2.00000
  157     -4.62465    2.00000
  158     -4.62465    2.00000
  159     -4.12260    2.00000
  160     -4.12260    2.00000
  161     -4.12260    2.00000
  162     -4.12260    2.00000
  163     -4.10717    2.00000
  164     -4.10717    2.00000
  165     -4.10717    2.00000
  166     -4.10717    2.00000
  167     -4.05186    2.00000
  168     -3.27261    2.00000
  169     -3.27261    2.00000
  170     -3.27261    2.00000
  171     -3.27261    2.00000
  172     -3.16811    2.00000
  173     -3.16811    2.00000
  174     -3.16811    2.00000
  175     -3.16811    2.00000
  176     -2.93396    2.00000
  177     -2.93396    2.00000
  178     -2.93396    2.00000
  179     -2.93396    2.00000

Fermi level: inf

Writing to output.gpw (mode='')


Forces in eV/Ang:
  0 Ca   -0.00000   -0.00000   -0.04144
  1 Ca    0.00000   -0.00000   -0.04144
  2 Ca    0.00000   -0.00000   -0.04144
  3 Ca   -0.00000    0.00000   -0.04144
  4 Ca    0.00000    0.00000   -0.04144
  5 Ca    0.00000    0.00000   -0.04144
  6 Ca   -0.00000    0.00000   -0.04144
  7 Ca    0.00000    0.00000   -0.04144
  8 Ca    0.00000    0.00000   -0.04144
  9 Ca    0.00000    0.00000    0.04461
 10 Ca   -0.00000    0.00000    0.04461
 11 Ca    0.00000    0.00000    0.04461
 12 Ca    0.00000   -0.00000    0.04461
 13 Ca   -0.00000   -0.00000    0.04461
 14 Ca    0.00000   -0.00000    0.04461
 15 Ca    0.00000    0.00000    0.04461
 16 Ca   -0.00000    0.00000    0.04461
 17 Ca    0.00000    0.00000    0.04461
 18 Ca   -0.00000   -0.00000   -0.04302
 19 Ca    0.00000   -0.00000   -0.04302
 20 Ca    0.00000   -0.00000   -0.04302
 21 Ca   -0.00000    0.00000   -0.04302
 22 Ca    0.00000    0.00000   -0.04302
 23 Ca    0.00000    0.00000   -0.04302
 24 Ca   -0.00000    0.00000   -0.04302
 25 Ca    0.00000    0.00000   -0.04302
 26 Ca    0.00000    0.00000   -0.04302
 27 Ca    0.00000    0.00000    0.04177
 28 Ca    0.00000    0.00000    0.04177
 29 Ca   -0.00000    0.00000    0.04177
 30 Ca    0.00000    0.00000    0.04177
 31 Ca    0.00000    0.00000    0.04177
 32 Ca   -0.00000    0.00000    0.04177
 33 Ca    0.00000   -0.00000    0.04177
 34 Ca    0.00000   -0.00000    0.04177
 35 Ca   -0.00000   -0.00000    0.04177

Timing:                              incl.     excl.
-----------------------------------------------------------
Forces:                              6.324     6.324   0.0% |
Hamiltonian:                       141.171     0.000   0.0% |
 Atomic:                             0.371     0.005   0.0% |
  XC Correction:                     0.366     0.366   0.0% |
 Calculate atomic Hamiltonians:      0.262     0.262   0.0% |
 Communicate:                        0.435     0.435   0.0% |
 Hartree integrate/restrict:         0.058     0.058   0.0% |
 Initialize Hamiltonian:             0.000     0.000   0.0% |
 Poisson:                            1.149     0.087   0.0% |
  Communicate from 1D:               0.130     0.130   0.0% |
  Communicate from 2D:               0.125     0.125   0.0% |
  Communicate to 1D:                 0.116     0.116   0.0% |
  Communicate to 2D:                 0.526     0.526   0.0% |
  FFT 1D:                            0.111     0.111   0.0% |
  FFT 2D:                            0.054     0.054   0.0% |
 XC 3D grid:                       138.891     4.480   0.0% |
  VdW-DF integral:                 134.411     0.366   0.0% |
   Convolution:                      8.276     8.276   0.0% |
   FFT:                              1.064     1.064   0.0% |
   gather:                          89.179    89.179   0.1% |
   hmm1:                             1.936     1.936   0.0% |
   hmm2:                             2.093     2.093   0.0% |
   iFFT:                             1.589     1.589   0.0% |
   potential:                       12.573     0.109   0.0% |
    collect:                         2.620     2.620   0.0% |
    p1:                              5.308     5.308   0.0% |
    p2:                              2.904     2.904   0.0% |
    sum:                             1.632     1.632   0.0% |
   splines:                         17.336    17.336   0.0% |
 vbar:                               0.004     0.004   0.0% |
LCAO initialization:                 1.158     0.106   0.0% |
 LCAO eigensolver:                   0.563     0.001   0.0% |
  Calculate projections:             0.000     0.000   0.0% |
  DenseAtomicCorrection:             0.000     0.000   0.0% |
  Distribute overlap matrix:         0.387     0.387   0.0% |
  Orbital Layouts:                   0.175     0.175   0.0% |
  Potential matrix:                  0.000     0.000   0.0% |
 LCAO to grid:                       0.080     0.080   0.0% |
 Set positions (LCAO WFS):           0.409     0.223   0.0% |
  Basic WFS set positions:           0.056     0.056   0.0% |
  Basis functions set positions:     0.001     0.001   0.0% |
  P tci:                             0.000     0.000   0.0% |
  ST tci:                            0.028     0.028   0.0% |
  mktci:                             0.100     0.100   0.0% |
SCF-cycle:                       155903.689   168.953   0.1% |
 Davidson:                       90914.162 70776.340  45.4% |-----------------|
  Apply hamiltonian:              3324.716  3324.716   2.1% ||
  Subspace diag:                  2708.106     0.111   0.0% |
   calc_h_matrix:                 1968.922   385.369   0.2% |
    Apply hamiltonian:            1583.553  1583.553   1.0% |
   diagonalize:                    165.345   165.345   0.1% |
   rotate_psi:                     573.728   573.728   0.4% |
  calc. matrices:                12128.781  4348.523   2.8% ||
   Apply hamiltonian:             7780.258  7780.258   5.0% |-|
  diagonalize:                     148.548   148.548   0.1% |
  rotate_psi:                     1827.671  1827.671   1.2% |
 Density:                         1019.743     0.020   0.0% |
  Atomic density matrices:          11.226    11.226   0.0% |
  Mix:                             168.712   168.712   0.1% |
  Multipole moments:                 4.092     4.092   0.0% |
  Pseudo density:                  835.694    78.117   0.1% |
   Symmetrize density:             757.577   757.577   0.5% |
 Hamiltonian:                    63791.532     0.116   0.0% |
  Atomic:                          174.966    22.544   0.0% |
   XC Correction:                  152.421   152.421   0.1% |
  Calculate atomic Hamiltonians:    74.224    74.224   0.0% |
  Communicate:                     212.109   212.109   0.1% |
  Hartree integrate/restrict:       47.841    47.841   0.0% |
  Poisson:                         618.559   218.914   0.1% |
   Communicate from 1D:             84.257    84.257   0.1% |
   Communicate from 2D:            103.166   103.166   0.1% |
   Communicate to 1D:               46.070    46.070   0.0% |
   Communicate to 2D:               93.285    93.285   0.1% |
   FFT 1D:                          39.652    39.652   0.0% |
   FFT 2D:                          33.215    33.215   0.0% |
  XC 3D grid:                    62661.489  2204.312   1.4% ||
   VdW-DF integral:              60457.178   158.186   0.1% |
    Convolution:                  4166.851  4166.851   2.7% ||
    FFT:                           815.208   815.208   0.5% |
    gather:                      46064.007 46064.007  29.5% |-----------|
    hmm1:                          810.333   810.333   0.5% |
    hmm2:                         1122.822  1122.822   0.7% |
    iFFT:                          821.992   821.992   0.5% |
    potential:                    6497.772    33.328   0.0% |
     collect:                     1215.864  1215.864   0.8% |
     p1:                          2343.675  2343.675   1.5% ||
     p2:                          1593.639  1593.639   1.0% |
     sum:                         1311.267  1311.267   0.8% |
    splines:                         0.006     0.006   0.0% |
  vbar:                              2.227     2.227   0.0% |
 Orthonormalize:                     9.298     0.000   0.0% |
  calc_s_matrix:                     0.355     0.355   0.0% |
  inverse-cholesky:                  8.234     8.234   0.0% |
  projections:                       0.000     0.000   0.0% |
  rotate_psi_s:                      0.708     0.708   0.0% |
Set symmetry:                        0.036     0.036   0.0% |
Other:                               7.609     7.609   0.0% |
-----------------------------------------------------------
Total:                                     156059.987 100.0%

Memory usage: 1.57 GiB
Date: Wed Feb 15 04:35:54 2023
