
  ___ ___ ___ _ _ _  
 |   |   |_  | | | | 
 | | | | | . | | | | 
 |__ |  _|___|_____|  22.8.0
 |___|_|             

User:   vazumah@c12.hercules
Date:   Tue Jan 17 16:02:55 2023
Arch:   x86_64
Pid:    3805
CWD:    /home/vazumah/Python_projects/LiNRR/autocad_start/slab_experiments/fixed_slab_def_vacuum/Al/fcc100/substrate
Python: 3.10.8
gpaw:   /home/vazumah/.conda/envs/GPAW/lib/python3.10/site-packages/gpaw
_gpaw:  /home/vazumah/.conda/envs/GPAW/lib/python3.10/site-packages/
        _gpaw.cpython-310-x86_64-linux-gnu.so
ase:    /home/vazumah/.conda/envs/GPAW/lib/python3.10/site-packages/ase (version 3.22.1)
numpy:  /home/vazumah/.conda/envs/GPAW/lib/python3.10/site-packages/numpy (version 1.24.1)
scipy:  /home/vazumah/.conda/envs/GPAW/lib/python3.10/site-packages/scipy (version 1.10.0)
libxc:  5.2.3
units:  Angstrom and eV
cores: 24
OpenMP: True
OMP_NUM_THREADS: 1

Input parameters:
  h: 0.16
  kpts: {size: [4, 4, 1]}
  maxiter: 999
  occupations: {name: fermi-dirac,
                width: 0.05}
  poissonsolver: {dipolelayer: xy}
  xc: BEEF-vdW

System changes: positions, numbers, cell, pbc, initial_charges, initial_magmoms 

Initialize ...

species:
  Al:
    name: Aluminium
    id: 0292cae29f5d6237e50f6abdd43a7bdd
    Z: 13.0
    valence: 3
    core: 10
    charge: 0.0
    file: /home/vazumah/.conda/envs/GPAW/share/gpaw/Al.PBE.gz
    compensation charges: {type: gauss,
                           rc: 0.34,
                           lmax: 2}
    cutoffs: {filter: 1.91,
              core: 2.36}
    valence states:
      #              energy  rcut
      - 3s(2.00)    -7.753   1.085
      - 3p(1.00)    -2.712   1.085
      -  s          19.459   1.085
      -  p          24.499   1.085
      -  d           0.000   1.085
  
    # Using partial waves for Al as LCAO basis

Reference energy: -237723.237536  # eV

Spin-paired calculation

Convergence criteria:
 Maximum [total energy] change in last 3 cyles: 0.0005 eV / electron
 Maximum integral of absolute [dens]ity change: 0.0001 electrons / valence electron
 Maximum integral of absolute [eigenst]ate change: 4e-08 eV^2 / valence electron
 Maximum number of scf [iter]ations: 999
 (Square brackets indicate name in SCF output, whereas a 'c' in
 the SCF output indicates the quantity has converged.)

Symmetries present (total): 8

  ( 1  0  0)  ( 1  0  0)  ( 0  1  0)  ( 0  1  0)  ( 0 -1  0)  ( 0 -1  0)
  ( 0  1  0)  ( 0 -1  0)  ( 1  0  0)  (-1  0  0)  ( 1  0  0)  (-1  0  0)
  ( 0  0  1)  ( 0  0  1)  ( 0  0  1)  ( 0  0  1)  ( 0  0  1)  ( 0  0  1)

  (-1  0  0)  (-1  0  0)
  ( 0  1  0)  ( 0 -1  0)
  ( 0  0  1)  ( 0  0  1)

16 k-points: 4 x 4 x 1 Monkhorst-Pack grid
3 k-points in the irreducible part of the Brillouin zone
       k-points in crystal coordinates                weights
   0:     0.12500000    0.12500000    0.00000000          4/16
   1:     0.37500000    0.12500000    0.00000000          8/16
   2:     0.37500000    0.37500000    0.00000000          4/16

Wave functions: Uniform real-space grid
  Kinetic energy operator: 6*3+1=19 point O(h^6) finite-difference Laplacian
  ScaLapack parameters: grid=1x1, blocksize=None
  Wavefunction extrapolation:
    Improved wavefunction reuse through dual PAW basis 

Occupation numbers: Fermi-Dirac:
  width: 0.0500  # eV
 

Eigensolver
   Davidson(niter=2) 

Densities:
  Coarse grid: 52*52*164 grid
  Fine grid: 104*104*328 grid
  Total Charge: 0.000000 

Density mixing:
  Method: separate
  Backend: pulay
  Linear mixing parameter: 0.05
  old densities: 5
  Damping of long wavelength oscillations: 50 

Hamiltonian:
  XC and Coulomb potentials evaluated on a 104*104*328 grid
  Using the BEEF-vdW Exchange-Correlation functional
  Interpolation: tri-quintic (5. degree polynomial)
  Poisson solver: FastPoissonSolver using
    Stencil: 6*3+1=19 point O(h^6) finite-difference Laplacian
    FFT axes: [0, 1]
    FST axes: [2]

Dipole correction along z-axis 

XC parameters: BEEF-vdW with 2 nearest neighbor stencil

Memory estimate:
  Process memory now: 119.65 MiB
  Calculator: 170.48 MiB
    Density: 39.78 MiB
      Arrays: 10.85 MiB
      Localized functions: 24.80 MiB
      Mixer: 4.13 MiB
    Hamiltonian: 8.93 MiB
      Arrays: 7.10 MiB
      XC: 0.00 MiB
      Poisson: 0.00 MiB
      vbar: 1.83 MiB
    Wavefunctions: 121.77 MiB
      Arrays psit_nG: 56.94 MiB
      Eigensolver: 61.79 MiB
      Projections: 0.06 MiB
      Projectors: 2.98 MiB

Total number of cores used: 24
Parallelization over k-points: 3
Domain decomposition: 1 x 2 x 4

Number of atoms: 36
Number of atomic orbitals: 144
Number of bands in calculation: 69
Number of valence electrons: 108
Bands to converge: occupied

... initialized

Initializing position-dependent things.

Density initialized from atomic densities
Creating initial wave functions:
  69 bands from LCAO basis set

      .--------------------.  
     /|                    |  
    / |                    |  
   /  |                    |  
  /   |                    |  
 *    |                    |  
 |    |                    |  
 |    |                    |  
 |    |                    |  
 |    |                    |  
 |    |                    |  
 |    |                    |  
 |    |                    |  
 |    |                    |  
 |  Al|    Al     Al       |  
 |    |                    |  
 | Al |  AAl    AAl    Al  |  
 Al   |AAl    AAl    Al    |  
 |    |                    |  
 |  AAl    AAl    AAl      |  
 |    |                    |  
 | Al |  AAl    AAl    Al  |  
 Al   |AAl    AAl    Al    |  
 |    |                    |  
 |   Al     Al     Al      |  
 |    |                    |  
 |    |                    |  
 |    |                    |  
 |    |                    |  
 |    |                    |  
 |    |                    |  
 |    |                    |  
 |    .--------------------.  
 |   /                    /   
 |  /                    /    
 | /                    /     
 |/                    /      
 *--------------------*       

Positions:
   0 Al     1.431891    1.431891   10.000000    ( 0.0000,  0.0000,  0.0000)
   1 Al     4.295674    1.431891   10.000000    ( 0.0000,  0.0000,  0.0000)
   2 Al     7.159456    1.431891   10.000000    ( 0.0000,  0.0000,  0.0000)
   3 Al     1.431891    4.295674   10.000000    ( 0.0000,  0.0000,  0.0000)
   4 Al     4.295674    4.295674   10.000000    ( 0.0000,  0.0000,  0.0000)
   5 Al     7.159456    4.295674   10.000000    ( 0.0000,  0.0000,  0.0000)
   6 Al     1.431891    7.159456   10.000000    ( 0.0000,  0.0000,  0.0000)
   7 Al     4.295674    7.159456   10.000000    ( 0.0000,  0.0000,  0.0000)
   8 Al     7.159456    7.159456   10.000000    ( 0.0000,  0.0000,  0.0000)
   9 Al     0.000000    0.000000   12.025000    ( 0.0000,  0.0000,  0.0000)
  10 Al     2.863782    0.000000   12.025000    ( 0.0000,  0.0000,  0.0000)
  11 Al     5.727565    0.000000   12.025000    ( 0.0000,  0.0000,  0.0000)
  12 Al     0.000000    2.863782   12.025000    ( 0.0000,  0.0000,  0.0000)
  13 Al     2.863782    2.863782   12.025000    ( 0.0000,  0.0000,  0.0000)
  14 Al     5.727565    2.863782   12.025000    ( 0.0000,  0.0000,  0.0000)
  15 Al     0.000000    5.727565   12.025000    ( 0.0000,  0.0000,  0.0000)
  16 Al     2.863782    5.727565   12.025000    ( 0.0000,  0.0000,  0.0000)
  17 Al     5.727565    5.727565   12.025000    ( 0.0000,  0.0000,  0.0000)
  18 Al     1.431891    1.431891   14.050000    ( 0.0000,  0.0000,  0.0000)
  19 Al     4.295674    1.431891   14.050000    ( 0.0000,  0.0000,  0.0000)
  20 Al     7.159456    1.431891   14.050000    ( 0.0000,  0.0000,  0.0000)
  21 Al     1.431891    4.295674   14.050000    ( 0.0000,  0.0000,  0.0000)
  22 Al     4.295674    4.295674   14.050000    ( 0.0000,  0.0000,  0.0000)
  23 Al     7.159456    4.295674   14.050000    ( 0.0000,  0.0000,  0.0000)
  24 Al     1.431891    7.159456   14.050000    ( 0.0000,  0.0000,  0.0000)
  25 Al     4.295674    7.159456   14.050000    ( 0.0000,  0.0000,  0.0000)
  26 Al     7.159456    7.159456   14.050000    ( 0.0000,  0.0000,  0.0000)
  27 Al     0.000000    0.000000   16.075000    ( 0.0000,  0.0000,  0.0000)
  28 Al     2.863782    0.000000   16.075000    ( 0.0000,  0.0000,  0.0000)
  29 Al     5.727565    0.000000   16.075000    ( 0.0000,  0.0000,  0.0000)
  30 Al     0.000000    2.863782   16.075000    ( 0.0000,  0.0000,  0.0000)
  31 Al     2.863782    2.863782   16.075000    ( 0.0000,  0.0000,  0.0000)
  32 Al     5.727565    2.863782   16.075000    ( 0.0000,  0.0000,  0.0000)
  33 Al     0.000000    5.727565   16.075000    ( 0.0000,  0.0000,  0.0000)
  34 Al     2.863782    5.727565   16.075000    ( 0.0000,  0.0000,  0.0000)
  35 Al     5.727565    5.727565   16.075000    ( 0.0000,  0.0000,  0.0000)

Unit cell:
           periodic     x           y           z      points  spacing
  1. axis:    yes    8.591347    0.000000    0.000000    52     0.1652
  2. axis:    yes    0.000000    8.591347    0.000000    52     0.1652
  3. axis:    no     0.000000    0.000000   26.075000   164     0.1590

  Lengths:   8.591347   8.591347  26.075000
  Angles:   90.000000  90.000000  90.000000

Effective grid spacing dv^(1/3) = 0.1631

     iter     time        total  log10-change:
                         energy  eigst   dens
iter:   1 16:05:27  -997.557851
iter:   2 16:07:38  -998.048549  +0.31  -0.92
iter:   3 16:09:42  -997.758642  +0.23  -0.93
iter:   4 16:11:50  -997.661522  -0.61  -1.08
Writing to output.gpw (mode='')

iter:   5 16:13:53  -998.259187  +0.13  -1.13
iter:   6 16:16:09  -999.190809  +0.45  -1.43
iter:   7 16:18:25  -999.011159  -0.74  -1.27
iter:   8 16:20:33  -997.726288  -0.09  -1.27
iter:   9 16:22:36  -997.736750  -0.83  -1.88
Writing to output.gpw (mode='')

iter:  10 16:24:49  -997.739842c -0.50  -2.00
iter:  11 16:26:53  -997.750395c -1.36  -2.60
iter:  12 16:29:12  -997.763768c -2.22  -2.61
iter:  13 16:31:19  -997.754421c -2.29  -2.36
iter:  14 16:33:27  -997.753942c -2.29  -2.65
Writing to output.gpw (mode='')

iter:  15 16:35:30  -997.759355c -1.92  -2.78
iter:  16 16:37:38  -997.754726c -2.34  -2.47
iter:  17 16:39:48  -997.755392c -2.31  -2.82
iter:  18 16:41:58  -997.757321c -2.48  -2.89
iter:  19 16:44:00  -997.754751c -2.62  -2.61
Writing to output.gpw (mode='')

iter:  20 16:46:03  -997.754957c -3.18  -3.50
iter:  21 16:48:13  -997.755008c -3.63  -3.80
iter:  22 16:50:15  -997.755024c -4.04  -3.90
iter:  23 16:52:18  -997.755171c -3.79  -3.82
iter:  24 16:54:21  -997.755037c -4.64  -3.43
Writing to output.gpw (mode='')

iter:  25 16:56:32  -997.754965c -4.67  -3.63
iter:  26 16:58:29  -997.754969c -5.12  -3.89
iter:  27 17:00:30  -997.754976c -5.25  -3.89
iter:  28 17:02:37  -997.754926c -4.82  -3.89
iter:  29 17:04:48  -997.754926c -5.20  -4.08c
Writing to output.gpw (mode='')

iter:  30 17:06:54  -997.754941c -5.63  -4.13c
iter:  31 17:08:56  -997.754950c -5.69  -4.21c
iter:  32 17:10:58  -997.754939c -5.78  -4.27c
iter:  33 17:12:58  -997.754935c -5.88  -4.38c
iter:  34 17:15:08  -997.754952c -5.99  -4.54c
Writing to output.gpw (mode='')

iter:  35 17:17:23  -997.754945c -6.32  -4.64c
iter:  36 17:19:31  -997.754942c -6.31  -4.92c
iter:  37 17:21:39  -997.754947c -6.15  -5.00c
iter:  38 17:23:44  -997.754945c -6.82  -5.07c
iter:  39 17:25:48  -997.754942c -6.88  -5.18c
Writing to output.gpw (mode='')

iter:  40 17:27:57  -997.754946c -7.28  -5.15c
iter:  41 17:29:58  -997.754944c -7.20  -5.28c
iter:  42 17:32:14  -997.754943c -7.47c -5.38c

Converged after 42 iterations.

Dipole moment: (-6.842261, -6.842261, 0.000009) |e|*Ang

Energy contributions relative to reference atoms: (reference = -237723.237536)

Kinetic:        +63.371311
Potential:      -17.024226
External:        +0.000000
XC:            -1044.050298
Entropy (-ST):   -0.146877
Local:           +0.021708
--------------------------
Free energy:   -997.828382
Extrapolated:  -997.754943

Dipole-layer corrected work functions: 4.563837, 4.563816 eV

Showing only first 2 kpts
 Kpt  Band  Eigenvalues  Occupancy
  0    52     -4.94740    1.99907
  0    53     -4.94740    1.99907
  0    54     -4.85576    1.99419
  0    55     -4.85576    1.99419

  1    52     -4.63129    1.58805
  1    53     -4.56959    1.05758
  1    54     -4.53252    0.69675
  1    55     -4.37823    0.04770


Fermi level: -4.56383

No gap
Writing to output.gpw (mode='')


Forces in eV/Ang:
  0 Al    0.00178    0.00178   -0.21145
  1 Al    0.00000   -0.00175   -0.20667
  2 Al   -0.00178    0.00178   -0.21145
  3 Al   -0.00175    0.00000   -0.20667
  4 Al    0.00000    0.00000   -0.21734
  5 Al    0.00175    0.00000   -0.20667
  6 Al    0.00178   -0.00178   -0.21145
  7 Al    0.00000    0.00175   -0.20667
  8 Al   -0.00178   -0.00178   -0.21145
  9 Al    0.00000    0.00000   -0.06231
 10 Al   -0.00228    0.00000   -0.05764
 11 Al    0.00228    0.00000   -0.05764
 12 Al    0.00000   -0.00228   -0.05764
 13 Al    0.00078    0.00078   -0.06184
 14 Al   -0.00078    0.00078   -0.06184
 15 Al    0.00000    0.00228   -0.05764
 16 Al    0.00078   -0.00078   -0.06184
 17 Al   -0.00078   -0.00078   -0.06184
 18 Al   -0.00079   -0.00079    0.06182
 19 Al    0.00000    0.00228    0.05762
 20 Al    0.00079   -0.00079    0.06182
 21 Al    0.00228    0.00000    0.05762
 22 Al    0.00000    0.00000    0.06229
 23 Al   -0.00228    0.00000    0.05762
 24 Al   -0.00079    0.00079    0.06182
 25 Al    0.00000   -0.00228    0.05762
 26 Al    0.00079    0.00079    0.06182
 27 Al    0.00000    0.00000    0.21730
 28 Al    0.00175    0.00000    0.20663
 29 Al   -0.00175    0.00000    0.20663
 30 Al    0.00000    0.00175    0.20663
 31 Al   -0.00178   -0.00178    0.21141
 32 Al    0.00178   -0.00178    0.21141
 33 Al    0.00000   -0.00175    0.20663
 34 Al   -0.00178    0.00178    0.21141
 35 Al    0.00178    0.00178    0.21141

System changes: positions 

Initializing position-dependent things.

Density initialized from wave functions
      .--------------------.  
     /|                    |  
    / |                    |  
   /  |                    |  
  /   |                    |  
 *    |                    |  
 |    |                    |  
 |    |                    |  
 |    |                    |  
 |    |                    |  
 |    |                    |  
 |    |                    |  
 |    |                    |  
 |    |                    |  
 |  Al|    Al     Al       |  
 |    |                    |  
 | Al |  AAl    AAl    Al  |  
 Al   |AAl    AAl    Al    |  
 |    |                    |  
 |  AAl    AAl    AAl      |  
 |    |                    |  
 | Al |  AAl    AAl    Al  |  
 Al   |AAl    AAl    Al    |  
 |    |                    |  
 |   Al     Al     Al      |  
 |    |                    |  
 |    |                    |  
 |    |                    |  
 |    |                    |  
 |    |                    |  
 |    |                    |  
 |    |                    |  
 |    .--------------------.  
 |   /                    /   
 |  /                    /    
 | /                    /     
 |/                    /      
 *--------------------*       

Positions:
   0 Al     1.431891    1.431891   10.000000    ( 0.0000,  0.0000,  0.0000)
   1 Al     4.295674    1.431891   10.000000    ( 0.0000,  0.0000,  0.0000)
   2 Al     7.159456    1.431891   10.000000    ( 0.0000,  0.0000,  0.0000)
   3 Al     1.431891    4.295674   10.000000    ( 0.0000,  0.0000,  0.0000)
   4 Al     4.295674    4.295674   10.000000    ( 0.0000,  0.0000,  0.0000)
   5 Al     7.159456    4.295674   10.000000    ( 0.0000,  0.0000,  0.0000)
   6 Al     1.431891    7.159456   10.000000    ( 0.0000,  0.0000,  0.0000)
   7 Al     4.295674    7.159456   10.000000    ( 0.0000,  0.0000,  0.0000)
   8 Al     7.159456    7.159456   10.000000    ( 0.0000,  0.0000,  0.0000)
   9 Al     0.000000    0.000000   12.025000    ( 0.0000,  0.0000,  0.0000)
  10 Al     2.863782    0.000000   12.025000    ( 0.0000,  0.0000,  0.0000)
  11 Al     5.727565    0.000000   12.025000    ( 0.0000,  0.0000,  0.0000)
  12 Al     0.000000    2.863782   12.025000    ( 0.0000,  0.0000,  0.0000)
  13 Al     2.863782    2.863782   12.025000    ( 0.0000,  0.0000,  0.0000)
  14 Al     5.727565    2.863782   12.025000    ( 0.0000,  0.0000,  0.0000)
  15 Al     0.000000    5.727565   12.025000    ( 0.0000,  0.0000,  0.0000)
  16 Al     2.863782    5.727565   12.025000    ( 0.0000,  0.0000,  0.0000)
  17 Al     5.727565    5.727565   12.025000    ( 0.0000,  0.0000,  0.0000)
  18 Al     1.431880    1.431880   14.050883    ( 0.0000,  0.0000,  0.0000)
  19 Al     4.295674    1.431924   14.050823    ( 0.0000,  0.0000,  0.0000)
  20 Al     7.159467    1.431880   14.050883    ( 0.0000,  0.0000,  0.0000)
  21 Al     1.431924    4.295674   14.050823    ( 0.0000,  0.0000,  0.0000)
  22 Al     4.295674    4.295674   14.050890    ( 0.0000,  0.0000,  0.0000)
  23 Al     7.159424    4.295674   14.050823    ( 0.0000,  0.0000,  0.0000)
  24 Al     1.431880    7.159467   14.050883    ( 0.0000,  0.0000,  0.0000)
  25 Al     4.295674    7.159424   14.050823    ( 0.0000,  0.0000,  0.0000)
  26 Al     7.159467    7.159467   14.050883    ( 0.0000,  0.0000,  0.0000)
  27 Al     0.000000    0.000000   16.078104    ( 0.0000,  0.0000,  0.0000)
  28 Al     2.863807    0.000000   16.077952    ( 0.0000,  0.0000,  0.0000)
  29 Al     5.727540    0.000000   16.077952    ( 0.0000,  0.0000,  0.0000)
  30 Al     0.000000    2.863807   16.077952    ( 0.0000,  0.0000,  0.0000)
  31 Al     2.863757    2.863757   16.078020    ( 0.0000,  0.0000,  0.0000)
  32 Al     5.727590    2.863757   16.078020    ( 0.0000,  0.0000,  0.0000)
  33 Al     0.000000    5.727540   16.077952    ( 0.0000,  0.0000,  0.0000)
  34 Al     2.863757    5.727590   16.078020    ( 0.0000,  0.0000,  0.0000)
  35 Al     5.727590    5.727590   16.078020    ( 0.0000,  0.0000,  0.0000)

Unit cell:
           periodic     x           y           z      points  spacing
  1. axis:    yes    8.591347    0.000000    0.000000    52     0.1652
  2. axis:    yes    0.000000    8.591347    0.000000    52     0.1652
  3. axis:    no     0.000000    0.000000   26.075000   164     0.1590

  Lengths:   8.591347   8.591347  26.075000
  Angles:   90.000000  90.000000  90.000000

Effective grid spacing dv^(1/3) = 0.1631

     iter     time        total  log10-change:
                         energy  eigst   dens
iter:   1 17:34:44  -997.764548  -2.78
iter:   2 17:36:50  -997.761885  -2.46  -2.58
iter:   3 17:38:52  -997.761237c -3.67  -2.97
iter:   4 17:40:58  -997.761287c -3.54  -3.29
Writing to output.gpw (mode='')

iter:   5 17:43:09  -997.761312c -3.54  -3.34
iter:   6 17:45:21  -997.761159c -4.21  -3.42
iter:   7 17:47:30  -997.761176c -4.35  -3.75
iter:   8 17:49:37  -997.761185c -5.27  -4.06c
iter:   9 17:51:50  -997.761180c -5.22  -4.11c
Writing to output.gpw (mode='')

iter:  10 17:53:59  -997.761184c -5.82  -4.10c
iter:  11 17:56:11  -997.761176c -5.32  -4.08c
iter:  12 17:58:17  -997.761170c -5.50  -4.02c
iter:  13 18:00:16  -997.761171c -6.27  -4.38c
iter:  14 18:02:10  -997.761175c -6.10  -4.39c
Writing to output.gpw (mode='')

iter:  15 18:04:24  -997.761179c -6.00  -4.30c
iter:  16 18:06:27  -997.761181c -5.78  -4.42c
iter:  17 18:08:35  -997.761183c -6.22  -4.46c
iter:  18 18:10:45  -997.761180c -6.25  -4.63c
iter:  19 18:13:00  -997.761179c -6.71  -4.75c
Writing to output.gpw (mode='')

iter:  20 18:15:13  -997.761179c -6.97  -5.19c
iter:  21 18:17:23  -997.761179c -7.21  -5.25c
iter:  22 18:19:36  -997.761179c -7.52c -5.27c

Converged after 22 iterations.

Dipole moment: (-6.842254, -6.842254, 0.000310) |e|*Ang

Energy contributions relative to reference atoms: (reference = -237723.237536)

Kinetic:        +62.965564
Potential:      -16.732019
External:        +0.000000
XC:            -1043.944453
Entropy (-ST):   -0.146506
Local:           +0.022982
--------------------------
Free energy:   -997.834432
Extrapolated:  -997.761179

Dipole-layer corrected work functions: 4.561864, 4.561103 eV

Showing only first 2 kpts
 Kpt  Band  Eigenvalues  Occupancy
  0    52     -4.94633    1.99909
  0    53     -4.94633    1.99909
  0    54     -4.85459    1.99433
  0    55     -4.85459    1.99433

  1    52     -4.63011    1.59558
  1    53     -4.56719    1.05698
  1    54     -4.52808    0.67783
  1    55     -4.37376    0.04576


Fermi level: -4.56148

No gap
Writing to output.gpw (mode='')


Forces in eV/Ang:
  0 Al    0.00177    0.00177   -0.21124
  1 Al    0.00000   -0.00177   -0.20648
  2 Al   -0.00177    0.00177   -0.21124
  3 Al   -0.00177    0.00000   -0.20648
  4 Al    0.00000    0.00000   -0.21711
  5 Al    0.00177    0.00000   -0.20648
  6 Al    0.00177   -0.00177   -0.21124
  7 Al    0.00000    0.00177   -0.20648
  8 Al   -0.00177   -0.00177   -0.21124
  9 Al    0.00000    0.00000   -0.05895
 10 Al   -0.00232    0.00000   -0.05427
 11 Al    0.00232    0.00000   -0.05427
 12 Al    0.00000   -0.00232   -0.05427
 13 Al    0.00077    0.00077   -0.05849
 14 Al   -0.00077    0.00077   -0.05849
 15 Al    0.00000    0.00232   -0.05427
 16 Al    0.00077   -0.00077   -0.05849
 17 Al   -0.00077   -0.00077   -0.05849
 18 Al   -0.00084   -0.00084    0.06519
 19 Al    0.00000    0.00222    0.06129
 20 Al    0.00084   -0.00084    0.06519
 21 Al    0.00222    0.00000    0.06129
 22 Al    0.00000    0.00000    0.06560
 23 Al   -0.00222    0.00000    0.06129
 24 Al   -0.00084    0.00084    0.06519
 25 Al    0.00000   -0.00222    0.06129
 26 Al    0.00084    0.00084    0.06519
 27 Al    0.00000    0.00000    0.21060
 28 Al    0.00137    0.00000    0.19910
 29 Al   -0.00137    0.00000    0.19910
 30 Al    0.00000    0.00137    0.19910
 31 Al   -0.00163   -0.00163    0.20467
 32 Al    0.00163   -0.00163    0.20467
 33 Al    0.00000   -0.00137    0.19910
 34 Al   -0.00163    0.00163    0.20467
 35 Al    0.00163    0.00163    0.20467

System changes: positions 

Initializing position-dependent things.

Density initialized from wave functions
      .--------------------.  
     /|                    |  
    / |                    |  
   /  |                    |  
  /   |                    |  
 *    |                    |  
 |    |                    |  
 |    |                    |  
 |    |                    |  
 |    |                    |  
 |    |                    |  
 |    |                    |  
 |    |                    |  
 |    |                    |  
 |  Al|    Al     Al       |  
 |    |                    |  
 | Al |  AAl    AAl    Al  |  
 Al   |AAl    AAl    Al    |  
 |    |                    |  
 |  AAl    AAl    AAl      |  
 |    |                    |  
 | Al |  AAl    AAl    Al  |  
 Al   |AAl    AAl    Al    |  
 |    |                    |  
 |   Al     Al     Al      |  
 |    |                    |  
 |    |                    |  
 |    |                    |  
 |    |                    |  
 |    |                    |  
 |    |                    |  
 |    |                    |  
 |    .--------------------.  
 |   /                    /   
 |  /                    /    
 | /                    /     
 |/                    /      
 *--------------------*       

Positions:
   0 Al     1.431891    1.431891   10.000000    ( 0.0000,  0.0000,  0.0000)
   1 Al     4.295674    1.431891   10.000000    ( 0.0000,  0.0000,  0.0000)
   2 Al     7.159456    1.431891   10.000000    ( 0.0000,  0.0000,  0.0000)
   3 Al     1.431891    4.295674   10.000000    ( 0.0000,  0.0000,  0.0000)
   4 Al     4.295674    4.295674   10.000000    ( 0.0000,  0.0000,  0.0000)
   5 Al     7.159456    4.295674   10.000000    ( 0.0000,  0.0000,  0.0000)
   6 Al     1.431891    7.159456   10.000000    ( 0.0000,  0.0000,  0.0000)
   7 Al     4.295674    7.159456   10.000000    ( 0.0000,  0.0000,  0.0000)
   8 Al     7.159456    7.159456   10.000000    ( 0.0000,  0.0000,  0.0000)
   9 Al     0.000000    0.000000   12.025000    ( 0.0000,  0.0000,  0.0000)
  10 Al     2.863782    0.000000   12.025000    ( 0.0000,  0.0000,  0.0000)
  11 Al     5.727565    0.000000   12.025000    ( 0.0000,  0.0000,  0.0000)
  12 Al     0.000000    2.863782   12.025000    ( 0.0000,  0.0000,  0.0000)
  13 Al     2.863782    2.863782   12.025000    ( 0.0000,  0.0000,  0.0000)
  14 Al     5.727565    2.863782   12.025000    ( 0.0000,  0.0000,  0.0000)
  15 Al     0.000000    5.727565   12.025000    ( 0.0000,  0.0000,  0.0000)
  16 Al     2.863782    5.727565   12.025000    ( 0.0000,  0.0000,  0.0000)
  17 Al     5.727565    5.727565   12.025000    ( 0.0000,  0.0000,  0.0000)
  18 Al     1.431840    1.431840   14.053973    ( 0.0000,  0.0000,  0.0000)
  19 Al     4.295674    1.432029   14.053728    ( 0.0000,  0.0000,  0.0000)
  20 Al     7.159507    1.431840   14.053973    ( 0.0000,  0.0000,  0.0000)
  21 Al     1.432029    4.295674   14.053728    ( 0.0000,  0.0000,  0.0000)
  22 Al     4.295674    4.295674   14.053999    ( 0.0000,  0.0000,  0.0000)
  23 Al     7.159318    4.295674   14.053728    ( 0.0000,  0.0000,  0.0000)
  24 Al     1.431840    7.159507   14.053973    ( 0.0000,  0.0000,  0.0000)
  25 Al     4.295674    7.159318   14.053728    ( 0.0000,  0.0000,  0.0000)
  26 Al     7.159507    7.159507   14.053973    ( 0.0000,  0.0000,  0.0000)
  27 Al    -0.000000    0.000000   16.088104    ( 0.0000,  0.0000,  0.0000)
  28 Al     2.863873   -0.000000   16.087407    ( 0.0000,  0.0000,  0.0000)
  29 Al     5.727475   -0.000000   16.087407    ( 0.0000,  0.0000,  0.0000)
  30 Al    -0.000000    2.863873   16.087407    ( 0.0000,  0.0000,  0.0000)
  31 Al     2.863679    2.863679   16.087739    ( 0.0000,  0.0000,  0.0000)
  32 Al     5.727668    2.863679   16.087739    ( 0.0000,  0.0000,  0.0000)
  33 Al    -0.000000    5.727475   16.087407    ( 0.0000,  0.0000,  0.0000)
  34 Al     2.863679    5.727668   16.087739    ( 0.0000,  0.0000,  0.0000)
  35 Al     5.727668    5.727668   16.087739    ( 0.0000,  0.0000,  0.0000)

Unit cell:
           periodic     x           y           z      points  spacing
  1. axis:    yes    8.591347    0.000000    0.000000    52     0.1652
  2. axis:    yes    0.000000    8.591347    0.000000    52     0.1652
  3. axis:    no     0.000000    0.000000   26.075000   164     0.1590

  Lengths:   8.591347   8.591347  26.075000
  Angles:   90.000000  90.000000  90.000000

Effective grid spacing dv^(1/3) = 0.1631

     iter     time        total  log10-change:
                         energy  eigst   dens
iter:   1 18:22:11  -997.814352  -1.79
iter:   2 18:24:21  -997.787758  -1.49  -2.08
iter:   3 18:26:30  -997.781178c -2.66  -2.47
iter:   4 18:28:32  -997.780819c -2.51  -2.79
Writing to output.gpw (mode='')

iter:   5 18:30:42  -997.781301c -2.56  -2.86
iter:   6 18:32:41  -997.780229c -3.23  -2.90
iter:   7 18:34:49  -997.780182c -3.34  -3.29
iter:   8 18:36:55  -997.780243c -4.21  -3.56
iter:   9 18:39:07  -997.780222c -4.22  -3.60
Writing to output.gpw (mode='')

iter:  10 18:41:21  -997.780238c -4.78  -3.64
iter:  11 18:43:41  -997.780236c -4.33  -3.63
iter:  12 18:45:54  -997.780198c -4.58  -3.49
iter:  13 18:48:16  -997.780203c -5.26  -3.83
iter:  14 18:50:26  -997.780210c -5.55  -3.85
Writing to output.gpw (mode='')

iter:  15 18:52:27  -997.780243c -5.09  -3.84
iter:  16 18:54:37  -997.780246c -5.48  -3.76
iter:  17 18:56:43  -997.780237c -5.03  -3.82
iter:  18 18:58:57  -997.780223c -5.34  -4.00c
iter:  19 19:01:05  -997.780220c -5.34  -4.23c
Writing to output.gpw (mode='')

iter:  20 19:03:14  -997.780222c -5.67  -4.42c
iter:  21 19:05:17  -997.780225c -6.11  -4.47c
iter:  22 19:07:22  -997.780229c -5.93  -4.48c
iter:  23 19:09:30  -997.780232c -6.27  -4.55c
iter:  24 19:11:30  -997.780232c -6.30  -4.75c
Writing to output.gpw (mode='')

iter:  25 19:13:50  -997.780233c -6.19  -4.92c
iter:  26 19:15:52  -997.780233c -6.85  -4.64c
iter:  27 19:17:58  -997.780230c -6.51  -4.71c
iter:  28 19:20:05  -997.780231c -7.19  -5.17c
iter:  29 19:22:24  -997.780232c -7.05  -5.21c
Writing to output.gpw (mode='')

iter:  30 19:24:30  -997.780231c -7.14  -5.29c
iter:  31 19:26:37  -997.780231c -7.50c -5.28c

Converged after 31 iterations.

Dipole moment: (-6.842226, -6.842226, 0.001062) |e|*Ang

Energy contributions relative to reference atoms: (reference = -237723.237536)

Kinetic:        +61.645697
Potential:      -15.775407
External:        +0.000000
XC:            -1043.603156
Entropy (-ST):   -0.145405
Local:           +0.025337
--------------------------
Free energy:   -997.852934
Extrapolated:  -997.780231

Dipole-layer corrected work functions: 4.555797, 4.553194 eV

Showing only first 2 kpts
 Kpt  Band  Eigenvalues  Occupancy
  0    52     -4.94319    1.99916
  0    53     -4.94318    1.99916
  0    54     -4.85109    1.99471
  0    55     -4.85108    1.99471

  1    52     -4.62657    1.61738
  1    53     -4.56021    1.05705
  1    54     -4.51413    0.61697
  1    55     -4.35972    0.03985


Fermi level: -4.55450

No gap
Writing to output.gpw (mode='')


Forces in eV/Ang:
  0 Al    0.00176    0.00176   -0.21025
  1 Al   -0.00000   -0.00182   -0.20553
  2 Al   -0.00176    0.00176   -0.21025
  3 Al   -0.00182    0.00000   -0.20553
  4 Al    0.00000    0.00000   -0.21613
  5 Al    0.00182    0.00000   -0.20553
  6 Al    0.00176   -0.00176   -0.21025
  7 Al   -0.00000    0.00182   -0.20553
  8 Al   -0.00176   -0.00176   -0.21025
  9 Al    0.00000    0.00000   -0.04851
 10 Al   -0.00244    0.00000   -0.04383
 11 Al    0.00244    0.00000   -0.04383
 12 Al    0.00000   -0.00244   -0.04383
 13 Al    0.00074    0.00074   -0.04814
 14 Al   -0.00074    0.00074   -0.04814
 15 Al    0.00000    0.00244   -0.04383
 16 Al    0.00074   -0.00074   -0.04814
 17 Al   -0.00074   -0.00074   -0.04814
 18 Al   -0.00102   -0.00102    0.07504
 19 Al    0.00000    0.00210    0.07203
 20 Al    0.00102   -0.00102    0.07504
 21 Al    0.00210    0.00000    0.07203
 22 Al    0.00000    0.00000    0.07533
 23 Al   -0.00210    0.00000    0.07203
 24 Al   -0.00102    0.00102    0.07504
 25 Al    0.00000   -0.00210    0.07203
 26 Al    0.00102    0.00102    0.07504
 27 Al    0.00000    0.00000    0.18844
 28 Al    0.00005    0.00000    0.17668
 29 Al   -0.00005    0.00000    0.17668
 30 Al    0.00000    0.00005    0.17668
 31 Al   -0.00102   -0.00102    0.18328
 32 Al    0.00102   -0.00102    0.18328
 33 Al    0.00000   -0.00005    0.17668
 34 Al   -0.00102    0.00102    0.18328
 35 Al    0.00102    0.00102    0.18328

System changes: positions 

Initializing position-dependent things.

Density initialized from wave functions
      .--------------------.  
     /|                    |  
    / |                    |  
   /  |                    |  
  /   |                    |  
 *    |                    |  
 |    |                    |  
 |    |                    |  
 |    |                    |  
 |    |                    |  
 |    |                    |  
 |    |                    |  
 |    |                    |  
 |    |                    |  
 |  Al|    Al     Al       |  
 |    |                    |  
 | Al |  AAl    AAl    Al  |  
 Al   |AAl    AAl    Al    |  
 |    |                    |  
 |  AAl    AAl    AAl      |  
 |    |                    |  
 | Al |  AAl    AAl    Al  |  
 Al   |AAl    AAl    Al    |  
 |    |                    |  
 |   Al     Al     Al      |  
 |    |                    |  
 |    |                    |  
 |    |                    |  
 |    |                    |  
 |    |                    |  
 |    |                    |  
 |    |                    |  
 |    .--------------------.  
 |   /                    /   
 |  /                    /    
 | /                    /     
 |/                    /      
 *--------------------*       

Positions:
   0 Al     1.431891    1.431891   10.000000    ( 0.0000,  0.0000,  0.0000)
   1 Al     4.295674    1.431891   10.000000    ( 0.0000,  0.0000,  0.0000)
   2 Al     7.159456    1.431891   10.000000    ( 0.0000,  0.0000,  0.0000)
   3 Al     1.431891    4.295674   10.000000    ( 0.0000,  0.0000,  0.0000)
   4 Al     4.295674    4.295674   10.000000    ( 0.0000,  0.0000,  0.0000)
   5 Al     7.159456    4.295674   10.000000    ( 0.0000,  0.0000,  0.0000)
   6 Al     1.431891    7.159456   10.000000    ( 0.0000,  0.0000,  0.0000)
   7 Al     4.295674    7.159456   10.000000    ( 0.0000,  0.0000,  0.0000)
   8 Al     7.159456    7.159456   10.000000    ( 0.0000,  0.0000,  0.0000)
   9 Al     0.000000    0.000000   12.025000    ( 0.0000,  0.0000,  0.0000)
  10 Al     2.863782    0.000000   12.025000    ( 0.0000,  0.0000,  0.0000)
  11 Al     5.727565    0.000000   12.025000    ( 0.0000,  0.0000,  0.0000)
  12 Al     0.000000    2.863782   12.025000    ( 0.0000,  0.0000,  0.0000)
  13 Al     2.863782    2.863782   12.025000    ( 0.0000,  0.0000,  0.0000)
  14 Al     5.727565    2.863782   12.025000    ( 0.0000,  0.0000,  0.0000)
  15 Al     0.000000    5.727565   12.025000    ( 0.0000,  0.0000,  0.0000)
  16 Al     2.863782    5.727565   12.025000    ( 0.0000,  0.0000,  0.0000)
  17 Al     5.727565    5.727565   12.025000    ( 0.0000,  0.0000,  0.0000)
  18 Al     1.431796    1.431796   14.057314    ( 0.0000,  0.0000,  0.0000)
  19 Al     4.295674    1.432136   14.056890    ( 0.0000,  0.0000,  0.0000)
  20 Al     7.159551    1.431796   14.057314    ( 0.0000,  0.0000,  0.0000)
  21 Al     1.432136    4.295674   14.056890    ( 0.0000,  0.0000,  0.0000)
  22 Al     4.295674    4.295674   14.057359    ( 0.0000,  0.0000,  0.0000)
  23 Al     7.159211    4.295674   14.056890    ( 0.0000,  0.0000,  0.0000)
  24 Al     1.431796    7.159551   14.057314    ( 0.0000,  0.0000,  0.0000)
  25 Al     4.295674    7.159211   14.056890    ( 0.0000,  0.0000,  0.0000)
  26 Al     7.159551    7.159551   14.057314    ( 0.0000,  0.0000,  0.0000)
  27 Al    -0.000000    0.000000   16.098104    ( 0.0000,  0.0000,  0.0000)
  28 Al     2.863920   -0.000000   16.096841    ( 0.0000,  0.0000,  0.0000)
  29 Al     5.727427   -0.000000   16.096841    ( 0.0000,  0.0000,  0.0000)
  30 Al    -0.000000    2.863920   16.096841    ( 0.0000,  0.0000,  0.0000)
  31 Al     2.863608    2.863608   16.097460    ( 0.0000,  0.0000,  0.0000)
  32 Al     5.727739    2.863608   16.097460    ( 0.0000,  0.0000,  0.0000)
  33 Al     0.000000    5.727427   16.096841    ( 0.0000,  0.0000,  0.0000)
  34 Al     2.863608    5.727739   16.097460    ( 0.0000,  0.0000,  0.0000)
  35 Al     5.727739    5.727739   16.097460    ( 0.0000,  0.0000,  0.0000)

Unit cell:
           periodic     x           y           z      points  spacing
  1. axis:    yes    8.591347    0.000000    0.000000    52     0.1652
  2. axis:    yes    0.000000    8.591347    0.000000    52     0.1652
  3. axis:    no     0.000000    0.000000   26.075000   164     0.1590

  Lengths:   8.591347   8.591347  26.075000
  Angles:   90.000000  90.000000  90.000000

Effective grid spacing dv^(1/3) = 0.1631

     iter     time        total  log10-change:
                         energy  eigst   dens
iter:   1 19:29:02  -997.830438  -1.78
iter:   2 19:31:08  -997.805035  -1.52  -2.09
iter:   3 19:33:19  -997.798752c -2.69  -2.47
iter:   4 19:35:26  -997.798400c -2.48  -2.80
Writing to output.gpw (mode='')

iter:   5 19:37:36  -997.798796c -2.58  -2.87
iter:   6 19:39:43  -997.797790c -3.23  -2.92
iter:   7 19:41:47  -997.797763c -3.34  -3.29
iter:   8 19:43:56  -997.797825c -4.22  -3.56
iter:   9 19:46:06  -997.797786c -4.19  -3.59
Writing to output.gpw (mode='')

iter:  10 19:48:18  -997.797809c -4.89  -3.59
iter:  11 19:50:24  -997.797767c -4.31  -3.59
iter:  12 19:52:31  -997.797765c -4.54  -3.55
iter:  13 19:54:37  -997.797767c -5.45  -3.89
iter:  14 19:56:43  -997.797776c -5.40  -3.92
Writing to output.gpw (mode='')

iter:  15 19:58:57  -997.797783c -5.26  -3.94
iter:  16 20:01:02  -997.797776c -5.40  -4.00c
iter:  17 20:03:12  -997.797785c -5.35  -4.36c
iter:  18 20:05:21  -997.797797c -5.13  -4.55c
iter:  19 20:07:30  -997.797794c -5.94  -4.64c
Writing to output.gpw (mode='')

iter:  20 20:09:38  -997.797792c -6.31  -4.70c
iter:  21 20:11:39  -997.797792c -6.46  -4.76c
iter:  22 20:13:51  -997.797792c -6.58  -4.82c
iter:  23 20:16:02  -997.797798c -6.00  -4.89c
iter:  24 20:18:11  -997.797794c -6.43  -4.85c
Writing to output.gpw (mode='')

iter:  25 20:20:20  -997.797789c -6.24  -5.06c
iter:  26 20:22:21  -997.797795c -6.58  -4.73c
iter:  27 20:24:28  -997.797795c -7.42c -5.31c

Converged after 27 iterations.

Dipole moment: (-6.842191, -6.842191, 0.001808) |e|*Ang

Energy contributions relative to reference atoms: (reference = -237723.237536)

Kinetic:        +60.348696
Potential:      -14.837386
External:        +0.000000
XC:            -1043.264067
Entropy (-ST):   -0.144430
Local:           +0.027176
--------------------------
Free energy:   -997.870010
Extrapolated:  -997.797795

Dipole-layer corrected work functions: 4.550172, 4.545739 eV

Showing only first 2 kpts
 Kpt  Band  Eigenvalues  Occupancy
  0    52     -4.94004    1.99921
  0    53     -4.94000    1.99921
  0    54     -4.84761    1.99502
  0    55     -4.84760    1.99502

  1    52     -4.62305    1.63573
  1    53     -4.55387    1.05912
  1    54     -4.50031    0.55663
  1    55     -4.34576    0.03445


Fermi level: -4.54796

No gap
Writing to output.gpw (mode='')


Forces in eV/Ang:
  0 Al    0.00176    0.00176   -0.20953
  1 Al   -0.00000   -0.00185   -0.20485
  2 Al   -0.00176    0.00176   -0.20953
  3 Al   -0.00185    0.00000   -0.20485
  4 Al    0.00000    0.00000   -0.21541
  5 Al    0.00185    0.00000   -0.20485
  6 Al    0.00176   -0.00176   -0.20953
  7 Al   -0.00000    0.00185   -0.20485
  8 Al   -0.00176   -0.00176   -0.20953
  9 Al    0.00000    0.00000   -0.03728
 10 Al   -0.00252    0.00000   -0.03257
 11 Al    0.00252    0.00000   -0.03257
 12 Al    0.00000   -0.00252   -0.03257
 13 Al    0.00071    0.00071   -0.03697
 14 Al   -0.00071    0.00071   -0.03697
 15 Al    0.00000    0.00252   -0.03257
 16 Al    0.00071   -0.00071   -0.03697
 17 Al   -0.00071   -0.00071   -0.03697
 18 Al   -0.00112   -0.00112    0.08301
 19 Al    0.00000    0.00205    0.08087
 20 Al    0.00112   -0.00112    0.08301
 21 Al    0.00205    0.00000    0.08087
 22 Al    0.00000    0.00000    0.08348
 23 Al   -0.00205    0.00000    0.08087
 24 Al   -0.00112    0.00112    0.08301
 25 Al    0.00000   -0.00205    0.08087
 26 Al    0.00112    0.00112    0.08301
 27 Al   -0.00000    0.00000    0.16727
 28 Al   -0.00102    0.00000    0.15677
 29 Al    0.00102    0.00000    0.15677
 30 Al    0.00000   -0.00102    0.15677
 31 Al   -0.00027   -0.00027    0.16281
 32 Al    0.00027   -0.00027    0.16281
 33 Al    0.00000    0.00102    0.15677
 34 Al   -0.00027    0.00027    0.16281
 35 Al    0.00027    0.00027    0.16281

System changes: positions 

Initializing position-dependent things.

Density initialized from wave functions
      .--------------------.  
     /|                    |  
    / |                    |  
   /  |                    |  
  /   |                    |  
 *    |                    |  
 |    |                    |  
 |    |                    |  
 |    |                    |  
 |    |                    |  
 |    |                    |  
 |    |                    |  
 |    |                    |  
 |    |                    |  
 |  Al|    Al     Al       |  
 |    |                    |  
 | Al |  AAl    AAl    Al  |  
 Al   |AAl    AAl    Al    |  
 |    |                    |  
 |  AAl    AAl    AAl      |  
 |    |                    |  
 | Al |  AAl    AAl    Al  |  
 Al   |AAl    AAl    Al    |  
 |    |                    |  
 |   Al     Al     Al      |  
 |    |                    |  
 |    |                    |  
 |    |                    |  
 |    |                    |  
 |    |                    |  
 |    |                    |  
 |    |                    |  
 |    .--------------------.  
 |   /                    /   
 |  /                    /    
 | /                    /     
 |/                    /      
 *--------------------*       

Positions:
   0 Al     1.431891    1.431891   10.000000    ( 0.0000,  0.0000,  0.0000)
   1 Al     4.295674    1.431891   10.000000    ( 0.0000,  0.0000,  0.0000)
   2 Al     7.159456    1.431891   10.000000    ( 0.0000,  0.0000,  0.0000)
   3 Al     1.431891    4.295674   10.000000    ( 0.0000,  0.0000,  0.0000)
   4 Al     4.295674    4.295674   10.000000    ( 0.0000,  0.0000,  0.0000)
   5 Al     7.159456    4.295674   10.000000    ( 0.0000,  0.0000,  0.0000)
   6 Al     1.431891    7.159456   10.000000    ( 0.0000,  0.0000,  0.0000)
   7 Al     4.295674    7.159456   10.000000    ( 0.0000,  0.0000,  0.0000)
   8 Al     7.159456    7.159456   10.000000    ( 0.0000,  0.0000,  0.0000)
   9 Al     0.000000    0.000000   12.025000    ( 0.0000,  0.0000,  0.0000)
  10 Al     2.863782    0.000000   12.025000    ( 0.0000,  0.0000,  0.0000)
  11 Al     5.727565    0.000000   12.025000    ( 0.0000,  0.0000,  0.0000)
  12 Al     0.000000    2.863782   12.025000    ( 0.0000,  0.0000,  0.0000)
  13 Al     2.863782    2.863782   12.025000    ( 0.0000,  0.0000,  0.0000)
  14 Al     5.727565    2.863782   12.025000    ( 0.0000,  0.0000,  0.0000)
  15 Al     0.000000    5.727565   12.025000    ( 0.0000,  0.0000,  0.0000)
  16 Al     2.863782    5.727565   12.025000    ( 0.0000,  0.0000,  0.0000)
  17 Al     5.727565    5.727565   12.025000    ( 0.0000,  0.0000,  0.0000)
  18 Al     1.431749    1.431749   14.060893    ( 0.0000,  0.0000,  0.0000)
  19 Al     4.295674    1.432246   14.060298    ( 0.0000,  0.0000,  0.0000)
  20 Al     7.159598    1.431749   14.060893    ( 0.0000,  0.0000,  0.0000)
  21 Al     1.432246    4.295674   14.060298    ( 0.0000,  0.0000,  0.0000)
  22 Al     4.295674    4.295674   14.060959    ( 0.0000,  0.0000,  0.0000)
  23 Al     7.159101    4.295674   14.060298    ( 0.0000,  0.0000,  0.0000)
  24 Al     1.431749    7.159598   14.060893    ( 0.0000,  0.0000,  0.0000)
  25 Al     4.295674    7.159101   14.060298    ( 0.0000,  0.0000,  0.0000)
  26 Al     7.159598    7.159598   14.060893    ( 0.0000,  0.0000,  0.0000)
  27 Al    -0.000000    0.000000   16.108104    ( 0.0000,  0.0000,  0.0000)
  28 Al     2.863953   -0.000000   16.106276    ( 0.0000,  0.0000,  0.0000)
  29 Al     5.727395   -0.000000   16.106276    ( 0.0000,  0.0000,  0.0000)
  30 Al    -0.000000    2.863953   16.106276    ( 0.0000,  0.0000,  0.0000)
  31 Al     2.863547    2.863547   16.107183    ( 0.0000,  0.0000,  0.0000)
  32 Al     5.727800    2.863547   16.107183    ( 0.0000,  0.0000,  0.0000)
  33 Al     0.000000    5.727395   16.106276    ( 0.0000,  0.0000,  0.0000)
  34 Al     2.863547    5.727800   16.107183    ( 0.0000,  0.0000,  0.0000)
  35 Al     5.727800    5.727800   16.107183    ( 0.0000,  0.0000,  0.0000)

Unit cell:
           periodic     x           y           z      points  spacing
  1. axis:    yes    8.591347    0.000000    0.000000    52     0.1652
  2. axis:    yes    0.000000    8.591347    0.000000    52     0.1652
  3. axis:    no     0.000000    0.000000   26.075000   164     0.1590

  Lengths:   8.591347   8.591347  26.075000
  Angles:   90.000000  90.000000  90.000000

Effective grid spacing dv^(1/3) = 0.1631

     iter     time        total  log10-change:
                         energy  eigst   dens
iter:   1 20:27:04  -997.844778  -1.78
iter:   2 20:29:16  -997.820340  -1.55  -2.11
iter:   3 20:31:31  -997.814920c -2.72  -2.49
iter:   4 20:33:42  -997.814640c -2.43  -2.81
Writing to output.gpw (mode='')

iter:   5 20:35:55  -997.815020c -2.54  -2.89
iter:   6 20:38:03  -997.814038c -3.26  -2.93
iter:   7 20:40:07  -997.814004c -3.35  -3.25
iter:   8 20:42:15  -997.814067c -4.20  -3.57
iter:   9 20:44:27  -997.814014c -4.14  -3.57
Writing to output.gpw (mode='')

iter:  10 20:46:35  -997.814039c -4.88  -3.53
iter:  11 20:48:45  -997.813990c -4.49  -3.58
iter:  12 20:50:59  -997.813993c -4.42  -3.53
iter:  13 20:53:05  -997.813987c -5.47  -3.89
iter:  14 20:55:15  -997.814000c -5.30  -3.92
Writing to output.gpw (mode='')

iter:  15 20:57:18  -997.814101c -4.54  -3.97
iter:  16 20:59:26  -997.814009c -4.20  -3.52
iter:  17 21:01:36  -997.814005c -4.57  -4.34c
iter:  18 21:03:40  -997.814009c -5.32  -4.41c
iter:  19 21:05:43  -997.814013c -5.86  -4.56c
Writing to output.gpw (mode='')

iter:  20 21:07:44  -997.814009c -5.82  -4.70c
iter:  21 21:09:45  -997.814013c -6.13  -4.63c
iter:  22 21:11:50  -997.814013c -6.41  -4.84c
iter:  23 21:13:54  -997.814013c -6.31  -4.92c
iter:  24 21:15:55  -997.814014c -6.65  -5.06c
Writing to output.gpw (mode='')

iter:  25 21:18:05  -997.814015c -6.83  -5.29c
iter:  26 21:20:12  -997.814015c -6.91  -5.30c
iter:  27 21:22:18  -997.814016c -6.72  -5.33c
iter:  28 21:24:25  -997.814016c -6.70  -5.50c
iter:  29 21:26:25  -997.814016c -7.18  -5.44c
Writing to output.gpw (mode='')

iter:  30 21:28:43  -997.814016c -7.13  -5.73c
iter:  31 21:30:47  -997.814016c -7.54c -5.82c

Converged after 31 iterations.

Dipole moment: (-6.842150, -6.842150, 0.002530) |e|*Ang

Energy contributions relative to reference atoms: (reference = -237723.237536)

Kinetic:        +59.068653
Potential:      -13.913683
External:        +0.000000
XC:            -1042.925987
Entropy (-ST):   -0.143558
Local:           +0.028780
--------------------------
Free energy:   -997.885794
Extrapolated:  -997.814016

Dipole-layer corrected work functions: 4.545209, 4.539006 eV

Showing only first 2 kpts
 Kpt  Band  Eigenvalues  Occupancy
  0    52     -4.93710    1.99926
  0    53     -4.93703    1.99926
  0    54     -4.84438    1.99527
  0    55     -4.84436    1.99527

  1    52     -4.61978    1.65081
  1    53     -4.54837    1.06251
  1    54     -4.48685    0.49757
  1    55     -4.33213    0.02956


Fermi level: -4.54211

No gap
Writing to output.gpw (mode='')


Forces in eV/Ang:
  0 Al    0.00176    0.00176   -0.20916
  1 Al    0.00000   -0.00190   -0.20451
  2 Al   -0.00176    0.00176   -0.20916
  3 Al   -0.00190    0.00000   -0.20451
  4 Al    0.00000    0.00000   -0.21503
  5 Al    0.00190    0.00000   -0.20451
  6 Al    0.00176   -0.00176   -0.20916
  7 Al    0.00000    0.00190   -0.20451
  8 Al   -0.00176   -0.00176   -0.20916
  9 Al    0.00000    0.00000   -0.02553
 10 Al   -0.00260    0.00000   -0.02080
 11 Al    0.00260    0.00000   -0.02080
 12 Al    0.00000   -0.00260   -0.02080
 13 Al    0.00069    0.00069   -0.02528
 14 Al   -0.00069    0.00069   -0.02528
 15 Al    0.00000    0.00260   -0.02080
 16 Al    0.00069   -0.00069   -0.02528
 17 Al   -0.00069   -0.00069   -0.02528
 18 Al   -0.00116   -0.00116    0.08944
 19 Al    0.00000    0.00202    0.08845
 20 Al    0.00116   -0.00116    0.08944
 21 Al    0.00202    0.00000    0.08845
 22 Al    0.00000    0.00000    0.09027
 23 Al   -0.00202    0.00000    0.08845
 24 Al   -0.00116    0.00116    0.08944
 25 Al    0.00000   -0.00202    0.08845
 26 Al    0.00116    0.00116    0.08944
 27 Al    0.00000    0.00000    0.14444
 28 Al   -0.00171    0.00000    0.13879
 29 Al    0.00171    0.00000    0.13879
 30 Al    0.00000   -0.00171    0.13879
 31 Al    0.00092    0.00092    0.14298
 32 Al   -0.00092    0.00092    0.14298
 33 Al    0.00000    0.00171    0.13879
 34 Al    0.00092   -0.00092    0.14298
 35 Al   -0.00092   -0.00092    0.14298

System changes: positions 

Initializing position-dependent things.

Density initialized from wave functions
      .--------------------.  
     /|                    |  
    / |                    |  
   /  |                    |  
  /   |                    |  
 *    |                    |  
 |    |                    |  
 |    |                    |  
 |    |                    |  
 |    |                    |  
 |    |                    |  
 |    |                    |  
 |    |                    |  
 |    |                    |  
 |  Al|    Al     Al       |  
 |    |                    |  
 | Al |  AAl    AAl    Al  |  
 Al   |AAl    AAl    Al    |  
 |    |                    |  
 |  AAl    AAl    AAl      |  
 |    |                    |  
 | Al |  AAl    AAl    Al  |  
 Al   |AAl    AAl    Al    |  
 |    |                    |  
 |   Al     Al     Al      |  
 |    |                    |  
 |    |                    |  
 |    |                    |  
 |    |                    |  
 |    |                    |  
 |    |                    |  
 |    |                    |  
 |    .--------------------.  
 |   /                    /   
 |  /                    /    
 | /                    /     
 |/                    /      
 *--------------------*       

Positions:
   0 Al     1.431891    1.431891   10.000000    ( 0.0000,  0.0000,  0.0000)
   1 Al     4.295674    1.431891   10.000000    ( 0.0000,  0.0000,  0.0000)
   2 Al     7.159456    1.431891   10.000000    ( 0.0000,  0.0000,  0.0000)
   3 Al     1.431891    4.295674   10.000000    ( 0.0000,  0.0000,  0.0000)
   4 Al     4.295674    4.295674   10.000000    ( 0.0000,  0.0000,  0.0000)
   5 Al     7.159456    4.295674   10.000000    ( 0.0000,  0.0000,  0.0000)
   6 Al     1.431891    7.159456   10.000000    ( 0.0000,  0.0000,  0.0000)
   7 Al     4.295674    7.159456   10.000000    ( 0.0000,  0.0000,  0.0000)
   8 Al     7.159456    7.159456   10.000000    ( 0.0000,  0.0000,  0.0000)
   9 Al     0.000000    0.000000   12.025000    ( 0.0000,  0.0000,  0.0000)
  10 Al     2.863782    0.000000   12.025000    ( 0.0000,  0.0000,  0.0000)
  11 Al     5.727565    0.000000   12.025000    ( 0.0000,  0.0000,  0.0000)
  12 Al     0.000000    2.863782   12.025000    ( 0.0000,  0.0000,  0.0000)
  13 Al     2.863782    2.863782   12.025000    ( 0.0000,  0.0000,  0.0000)
  14 Al     5.727565    2.863782   12.025000    ( 0.0000,  0.0000,  0.0000)
  15 Al     0.000000    5.727565   12.025000    ( 0.0000,  0.0000,  0.0000)
  16 Al     2.863782    5.727565   12.025000    ( 0.0000,  0.0000,  0.0000)
  17 Al     5.727565    5.727565   12.025000    ( 0.0000,  0.0000,  0.0000)
  18 Al     1.431700    1.431700   14.064716    ( 0.0000,  0.0000,  0.0000)
  19 Al     4.295674    1.432360   14.063963    ( 0.0000,  0.0000,  0.0000)
  20 Al     7.159648    1.431700   14.064716    ( 0.0000,  0.0000,  0.0000)
  21 Al     1.432360    4.295674   14.063963    ( 0.0000,  0.0000,  0.0000)
  22 Al     4.295674    4.295674   14.064811    ( 0.0000,  0.0000,  0.0000)
  23 Al     7.158988    4.295674   14.063963    ( 0.0000,  0.0000,  0.0000)
  24 Al     1.431700    7.159648   14.064716    ( 0.0000,  0.0000,  0.0000)
  25 Al     4.295674    7.158988   14.063963    ( 0.0000,  0.0000,  0.0000)
  26 Al     7.159648    7.159648   14.064716    ( 0.0000,  0.0000,  0.0000)
  27 Al    -0.000000    0.000000   16.118104    ( 0.0000,  0.0000,  0.0000)
  28 Al     2.863974   -0.000000   16.115766    ( 0.0000,  0.0000,  0.0000)
  29 Al     5.727374    0.000000   16.115766    ( 0.0000,  0.0000,  0.0000)
  30 Al    -0.000000    2.863974   16.115766    ( 0.0000,  0.0000,  0.0000)
  31 Al     2.863503    2.863503   16.116943    ( 0.0000,  0.0000,  0.0000)
  32 Al     5.727845    2.863503   16.116943    ( 0.0000,  0.0000,  0.0000)
  33 Al     0.000000    5.727374   16.115766    ( 0.0000,  0.0000,  0.0000)
  34 Al     2.863503    5.727845   16.116943    ( 0.0000,  0.0000,  0.0000)
  35 Al     5.727845    5.727845   16.116943    ( 0.0000,  0.0000,  0.0000)

Unit cell:
           periodic     x           y           z      points  spacing
  1. axis:    yes    8.591347    0.000000    0.000000    52     0.1652
  2. axis:    yes    0.000000    8.591347    0.000000    52     0.1652
  3. axis:    no     0.000000    0.000000   26.075000   164     0.1590

  Lengths:   8.591347   8.591347  26.075000
  Angles:   90.000000  90.000000  90.000000

Effective grid spacing dv^(1/3) = 0.1631

     iter     time        total  log10-change:
                         energy  eigst   dens
iter:   1 21:33:18  -997.858048  -1.77
iter:   2 21:35:13  -997.834348  -1.62  -2.13
iter:   3 21:37:16  -997.829842c -2.71  -2.52
iter:   4 21:39:26  -997.829607c -2.39  -2.81
Writing to output.gpw (mode='')

iter:   5 21:41:34  -997.830042c -2.51  -2.91
iter:   6 21:43:44  -997.829035c -3.29  -2.92
iter:   7 21:45:52  -997.828985c -3.34  -3.21
iter:   8 21:47:56  -997.829043c -4.21  -3.57
iter:   9 21:50:04  -997.828989c -4.11  -3.56
Writing to output.gpw (mode='')

iter:  10 21:52:12  -997.829014c -4.86  -3.51
iter:  11 21:54:24  -997.828956c -4.54  -3.56
iter:  12 21:56:32  -997.828965c -4.43  -3.58
iter:  13 21:58:33  -997.828957c -5.50  -3.92
iter:  14 22:00:38  -997.828968c -5.33  -3.94
Writing to output.gpw (mode='')

iter:  15 22:02:49  -997.829066c -4.57  -4.00
iter:  16 22:05:04  -997.828978c -4.16  -3.55
iter:  17 22:07:12  -997.828973c -4.44  -4.26c
iter:  18 22:09:13  -997.828980c -5.56  -4.20c
iter:  19 22:11:13  -997.828981c -5.91  -4.61c
Writing to output.gpw (mode='')

iter:  20 22:13:16  -997.828978c -5.99  -4.69c
iter:  21 22:15:16  -997.828978c -6.08  -4.78c
iter:  22 22:17:26  -997.828980c -6.40  -4.85c
iter:  23 22:19:30  -997.828985c -6.34  -4.87c
iter:  24 22:21:36  -997.828984c -6.60  -4.98c
Writing to output.gpw (mode='')

iter:  25 22:23:46  -997.828983c -6.45  -5.04c
iter:  26 22:25:48  -997.828983c -6.77  -5.19c
iter:  27 22:27:58  -997.828983c -6.88  -5.30c
iter:  28 22:30:03  -997.828985c -6.53  -5.43c
iter:  29 22:32:09  -997.828984c -7.37  -5.38c
Writing to output.gpw (mode='')

iter:  30 22:34:17  -997.828984c -7.61c -5.52c

Converged after 30 iterations.

Dipole moment: (-6.842105, -6.842105, 0.003278) |e|*Ang

Energy contributions relative to reference atoms: (reference = -237723.237536)

Kinetic:        +57.784020
Potential:      -12.985341
External:        +0.000000
XC:            -1042.586962
Entropy (-ST):   -0.142753
Local:           +0.030676
--------------------------
Free energy:   -997.900360
Extrapolated:  -997.828984

Dipole-layer corrected work functions: 4.540564, 4.532528 eV

Showing only first 2 kpts
 Kpt  Band  Eigenvalues  Occupancy
  0    52     -4.93398    1.99929
  0    53     -4.93388    1.99929
  0    54     -4.84098    1.99547
  0    55     -4.84094    1.99547

  1    52     -4.61633    1.66284
  1    53     -4.54326    1.06708
  1    54     -4.47321    0.43967
  1    55     -4.31829    0.02511


Fermi level: -4.53655

No gap

Forces in eV/Ang:
  0 Al    0.00175    0.00175   -0.20863
  1 Al    0.00000   -0.00192   -0.20400
  2 Al   -0.00175    0.00175   -0.20863
  3 Al   -0.00192    0.00000   -0.20400
  4 Al    0.00000    0.00000   -0.21450
  5 Al    0.00192    0.00000   -0.20400
  6 Al    0.00175   -0.00175   -0.20863
  7 Al   -0.00000    0.00192   -0.20400
  8 Al   -0.00175   -0.00175   -0.20863
  9 Al    0.00000    0.00000   -0.01322
 10 Al   -0.00265    0.00000   -0.00840
 11 Al    0.00265    0.00000   -0.00840
 12 Al    0.00000   -0.00265   -0.00840
 13 Al    0.00065    0.00065   -0.01299
 14 Al   -0.00065    0.00065   -0.01299
 15 Al    0.00000    0.00265   -0.00840
 16 Al    0.00065   -0.00065   -0.01299
 17 Al   -0.00065   -0.00065   -0.01299
 18 Al   -0.00110   -0.00110    0.09456
 19 Al    0.00000    0.00191    0.09496
 20 Al    0.00110   -0.00110    0.09456
 21 Al    0.00191    0.00000    0.09496
 22 Al    0.00000    0.00000    0.09575
 23 Al   -0.00191    0.00000    0.09496
 24 Al   -0.00110    0.00110    0.09456
 25 Al    0.00000   -0.00191    0.09496
 26 Al    0.00110    0.00110    0.09456
 27 Al    0.00000    0.00000    0.12158
 28 Al   -0.00228    0.00000    0.12098
 29 Al    0.00228    0.00000    0.12098
 30 Al    0.00000   -0.00228    0.12098
 31 Al    0.00198    0.00198    0.12312
 32 Al   -0.00198    0.00198    0.12312
 33 Al    0.00000    0.00228    0.12098
 34 Al    0.00198   -0.00198    0.12312
 35 Al   -0.00198   -0.00198    0.12312

System changes: positions 

Initializing position-dependent things.

Density initialized from wave functions
      .--------------------.  
     /|                    |  
    / |                    |  
   /  |                    |  
  /   |                    |  
 *    |                    |  
 |    |                    |  
 |    |                    |  
 |    |                    |  
 |    |                    |  
 |    |                    |  
 |    |                    |  
 |    |                    |  
 |    |                    |  
 |  Al|    Al     Al       |  
 |    |                    |  
 | Al |  AAl    AAl    Al  |  
 Al   |AAl    AAl    Al    |  
 |    |                    |  
 |  AAl    AAl    AAl      |  
 |    |                    |  
 | Al |  AAl    AAl    Al  |  
 Al   |AAl    AAl    Al    |  
 |    |                    |  
 |   Al     Al     Al      |  
 |    |                    |  
 |    |                    |  
 |    |                    |  
 |    |                    |  
 |    |                    |  
 |    |                    |  
 |    |                    |  
 |    .--------------------.  
 |   /                    /   
 |  /                    /    
 | /                    /     
 |/                    /      
 *--------------------*       

Positions:
   0 Al     1.431891    1.431891   10.000000    ( 0.0000,  0.0000,  0.0000)
   1 Al     4.295674    1.431891   10.000000    ( 0.0000,  0.0000,  0.0000)
   2 Al     7.159456    1.431891   10.000000    ( 0.0000,  0.0000,  0.0000)
   3 Al     1.431891    4.295674   10.000000    ( 0.0000,  0.0000,  0.0000)
   4 Al     4.295674    4.295674   10.000000    ( 0.0000,  0.0000,  0.0000)
   5 Al     7.159456    4.295674   10.000000    ( 0.0000,  0.0000,  0.0000)
   6 Al     1.431891    7.159456   10.000000    ( 0.0000,  0.0000,  0.0000)
   7 Al     4.295674    7.159456   10.000000    ( 0.0000,  0.0000,  0.0000)
   8 Al     7.159456    7.159456   10.000000    ( 0.0000,  0.0000,  0.0000)
   9 Al     0.000000    0.000000   12.025000    ( 0.0000,  0.0000,  0.0000)
  10 Al     2.863782    0.000000   12.025000    ( 0.0000,  0.0000,  0.0000)
  11 Al     5.727565    0.000000   12.025000    ( 0.0000,  0.0000,  0.0000)
  12 Al     0.000000    2.863782   12.025000    ( 0.0000,  0.0000,  0.0000)
  13 Al     2.863782    2.863782   12.025000    ( 0.0000,  0.0000,  0.0000)
  14 Al     5.727565    2.863782   12.025000    ( 0.0000,  0.0000,  0.0000)
  15 Al     0.000000    5.727565   12.025000    ( 0.0000,  0.0000,  0.0000)
  16 Al     2.863782    5.727565   12.025000    ( 0.0000,  0.0000,  0.0000)
  17 Al     5.727565    5.727565   12.025000    ( 0.0000,  0.0000,  0.0000)
  18 Al     1.431649    1.431649   14.068792    ( 0.0000,  0.0000,  0.0000)
  19 Al     4.295674    1.432476   14.067899    ( 0.0000,  0.0000,  0.0000)
  20 Al     7.159698    1.431649   14.068792    ( 0.0000,  0.0000,  0.0000)
  21 Al     1.432476    4.295674   14.067899    ( 0.0000,  0.0000,  0.0000)
  22 Al     4.295674    4.295674   14.068922    ( 0.0000,  0.0000,  0.0000)
  23 Al     7.158871    4.295674   14.067899    ( 0.0000,  0.0000,  0.0000)
  24 Al     1.431649    7.159698   14.068792    ( 0.0000,  0.0000,  0.0000)
  25 Al     4.295674    7.158871   14.067899    ( 0.0000,  0.0000,  0.0000)
  26 Al     7.159698    7.159698   14.068792    ( 0.0000,  0.0000,  0.0000)
  27 Al    -0.000000    0.000000   16.128104    ( 0.0000,  0.0000,  0.0000)
  28 Al     2.863985   -0.000000   16.125321    ( 0.0000,  0.0000,  0.0000)
  29 Al     5.727362    0.000000   16.125321    ( 0.0000,  0.0000,  0.0000)
  30 Al    -0.000000    2.863985   16.125321    ( 0.0000,  0.0000,  0.0000)
  31 Al     2.863475    2.863475   16.126745    ( 0.0000,  0.0000,  0.0000)
  32 Al     5.727873    2.863475   16.126745    ( 0.0000,  0.0000,  0.0000)
  33 Al     0.000000    5.727362   16.125321    ( 0.0000,  0.0000,  0.0000)
  34 Al     2.863475    5.727873   16.126745    ( 0.0000,  0.0000,  0.0000)
  35 Al     5.727873    5.727873   16.126745    ( 0.0000,  0.0000,  0.0000)

Unit cell:
           periodic     x           y           z      points  spacing
  1. axis:    yes    8.591347    0.000000    0.000000    52     0.1652
  2. axis:    yes    0.000000    8.591347    0.000000    52     0.1652
  3. axis:    no     0.000000    0.000000   26.075000   164     0.1590

  Lengths:   8.591347   8.591347  26.075000
  Angles:   90.000000  90.000000  90.000000

Effective grid spacing dv^(1/3) = 0.1631

     iter     time        total  log10-change:
                         energy  eigst   dens
iter:   1 22:36:42  -997.870305  -1.77
iter:   2 22:38:51  -997.847516  -1.68  -2.14
iter:   3 22:41:06  -997.843551c -2.71  -2.53
iter:   4 22:43:16  -997.843351c -2.34  -2.81
Writing to output.gpw (mode='')

iter:   5 22:45:30  -997.843727c -2.50  -2.92
iter:   6 22:47:40  -997.842787c -3.34  -2.94
iter:   7 22:49:42  -997.842742c -3.39  -3.20
iter:   8 22:51:46  -997.842804c -4.14  -3.56
iter:   9 22:53:54  -997.842729c -4.05  -3.53
Writing to output.gpw (mode='')

iter:  10 22:56:18  -997.842742c -4.09  -3.47
iter:  11 22:58:16  -997.842716c -4.63  -3.81
iter:  12 23:00:24  -997.842695c -4.91  -3.96
iter:  13 23:02:31  -997.842713c -5.10  -4.11c
iter:  14 23:04:43  -997.842721c -5.07  -4.09c
Writing to output.gpw (mode='')

iter:  15 23:06:52  -997.842727c -5.18  -4.34c
iter:  16 23:09:06  -997.842715c -5.45  -4.42c
iter:  17 23:11:15  -997.842719c -6.00  -4.40c
iter:  18 23:13:28  -997.842726c -5.72  -4.63c
iter:  19 23:15:30  -997.842726c -6.31  -4.77c
Writing to output.gpw (mode='')

iter:  20 23:17:40  -997.842717c -5.87  -4.80c
iter:  21 23:19:45  -997.842722c -6.75  -4.70c
iter:  22 23:21:50  -997.842727c -6.42  -4.83c
iter:  23 23:23:56  -997.842725c -7.11  -5.00c
iter:  24 23:25:57  -997.842723c -6.77  -5.08c
Writing to output.gpw (mode='')

iter:  25 23:28:06  -997.842726c -6.94  -5.15c
iter:  26 23:30:16  -997.842725c -7.72c -5.21c

Converged after 26 iterations.

Dipole moment: (-6.842057, -6.842057, 0.004011) |e|*Ang

Energy contributions relative to reference atoms: (reference = -237723.237536)

Kinetic:        +56.513024
Potential:      -12.068901
External:        +0.000000
XC:            -1042.247979
Entropy (-ST):   -0.142005
Local:           +0.032134
--------------------------
Free energy:   -997.913728
Extrapolated:  -997.842725

Dipole-layer corrected work functions: 4.536268, 4.526434 eV

Showing only first 2 kpts
 Kpt  Band  Eigenvalues  Occupancy
  0    52     -4.93077    1.99932
  0    53     -4.93063    1.99932
  0    54     -4.83747    1.99562
  0    55     -4.83739    1.99562

  1    52     -4.61275    1.67180
  1    53     -4.53863    1.07265
  1    54     -4.45944    0.38363
  1    55     -4.31216    0.02465


Fermi level: -4.53135

No gap
Writing to output.gpw (mode='')


Forces in eV/Ang:
  0 Al    0.00173    0.00173   -0.20782
  1 Al   -0.00000   -0.00195   -0.20322
  2 Al   -0.00173    0.00173   -0.20782
  3 Al   -0.00195    0.00000   -0.20322
  4 Al    0.00000    0.00000   -0.21367
  5 Al    0.00195    0.00000   -0.20322
  6 Al    0.00173   -0.00173   -0.20782
  7 Al   -0.00000    0.00195   -0.20322
  8 Al   -0.00173   -0.00173   -0.20782
  9 Al    0.00000    0.00000   -0.00016
 10 Al   -0.00271    0.00000    0.00476
 11 Al    0.00271    0.00000    0.00476
 12 Al    0.00000   -0.00271    0.00476
 13 Al    0.00063    0.00063    0.00008
 14 Al   -0.00063    0.00063    0.00008
 15 Al    0.00000    0.00271    0.00476
 16 Al    0.00063   -0.00063    0.00008
 17 Al   -0.00063   -0.00063    0.00008
 18 Al   -0.00092   -0.00092    0.09791
 19 Al   -0.00000    0.00162    0.09987
 20 Al    0.00092   -0.00092    0.09791
 21 Al    0.00162    0.00000    0.09987
 22 Al    0.00000    0.00000    0.09940
 23 Al   -0.00162    0.00000    0.09987
 24 Al   -0.00092    0.00092    0.09791
 25 Al   -0.00000   -0.00162    0.09987
 26 Al    0.00092    0.00092    0.09791
 27 Al    0.00000    0.00000    0.10154
 28 Al   -0.00288    0.00000    0.10347
 29 Al    0.00288    0.00000    0.10347
 30 Al    0.00000   -0.00288    0.10347
 31 Al    0.00268    0.00268    0.10403
 32 Al   -0.00268    0.00268    0.10403
 33 Al    0.00000    0.00288    0.10347
 34 Al    0.00268   -0.00268    0.10403
 35 Al   -0.00268   -0.00268    0.10403

System changes: positions 

Initializing position-dependent things.

Density initialized from wave functions
      .--------------------.  
     /|                    |  
    / |                    |  
   /  |                    |  
  /   |                    |  
 *    |                    |  
 |    |                    |  
 |    |                    |  
 |    |                    |  
 |    |                    |  
 |    |                    |  
 |    |                    |  
 |    |                    |  
 |    |                    |  
 |  Al|    Al     Al       |  
 |    |                    |  
 | Al |  AAl    AAl    Al  |  
 Al   |AAl    AAl    Al    |  
 |    |                    |  
 |  AAl    AAl    AAl      |  
 |    |                    |  
 | Al |  AAl    AAl    Al  |  
 Al   |AAl    AAl    Al    |  
 |    |                    |  
 |   Al     Al     Al      |  
 |    |                    |  
 |    |                    |  
 |    |                    |  
 |    |                    |  
 |    |                    |  
 |    |                    |  
 |    |                    |  
 |    .--------------------.  
 |   /                    /   
 |  /                    /    
 | /                    /     
 |/                    /      
 *--------------------*       

Positions:
   0 Al     1.431891    1.431891   10.000000    ( 0.0000,  0.0000,  0.0000)
   1 Al     4.295674    1.431891   10.000000    ( 0.0000,  0.0000,  0.0000)
   2 Al     7.159456    1.431891   10.000000    ( 0.0000,  0.0000,  0.0000)
   3 Al     1.431891    4.295674   10.000000    ( 0.0000,  0.0000,  0.0000)
   4 Al     4.295674    4.295674   10.000000    ( 0.0000,  0.0000,  0.0000)
   5 Al     7.159456    4.295674   10.000000    ( 0.0000,  0.0000,  0.0000)
   6 Al     1.431891    7.159456   10.000000    ( 0.0000,  0.0000,  0.0000)
   7 Al     4.295674    7.159456   10.000000    ( 0.0000,  0.0000,  0.0000)
   8 Al     7.159456    7.159456   10.000000    ( 0.0000,  0.0000,  0.0000)
   9 Al     0.000000    0.000000   12.025000    ( 0.0000,  0.0000,  0.0000)
  10 Al     2.863782    0.000000   12.025000    ( 0.0000,  0.0000,  0.0000)
  11 Al     5.727565    0.000000   12.025000    ( 0.0000,  0.0000,  0.0000)
  12 Al     0.000000    2.863782   12.025000    ( 0.0000,  0.0000,  0.0000)
  13 Al     2.863782    2.863782   12.025000    ( 0.0000,  0.0000,  0.0000)
  14 Al     5.727565    2.863782   12.025000    ( 0.0000,  0.0000,  0.0000)
  15 Al     0.000000    5.727565   12.025000    ( 0.0000,  0.0000,  0.0000)
  16 Al     2.863782    5.727565   12.025000    ( 0.0000,  0.0000,  0.0000)
  17 Al     5.727565    5.727565   12.025000    ( 0.0000,  0.0000,  0.0000)
  18 Al     1.431599    1.431599   14.073105    ( 0.0000,  0.0000,  0.0000)
  19 Al     4.295674    1.432592   14.072093    ( 0.0000,  0.0000,  0.0000)
  20 Al     7.159749    1.431599   14.073105    ( 0.0000,  0.0000,  0.0000)
  21 Al     1.432592    4.295674   14.072093    ( 0.0000,  0.0000,  0.0000)
  22 Al     4.295674    4.295674   14.073277    ( 0.0000,  0.0000,  0.0000)
  23 Al     7.158755    4.295674   14.072093    ( 0.0000,  0.0000,  0.0000)
  24 Al     1.431599    7.159749   14.073105    ( 0.0000,  0.0000,  0.0000)
  25 Al     4.295674    7.158755   14.072093    ( 0.0000,  0.0000,  0.0000)
  26 Al     7.159749    7.159749   14.073105    ( 0.0000,  0.0000,  0.0000)
  27 Al    -0.000000    0.000000   16.138104    ( 0.0000,  0.0000,  0.0000)
  28 Al     2.863984   -0.000000   16.134910    ( 0.0000,  0.0000,  0.0000)
  29 Al     5.727363    0.000000   16.134910    ( 0.0000,  0.0000,  0.0000)
  30 Al    -0.000000    2.863984   16.134910    ( 0.0000,  0.0000,  0.0000)
  31 Al     2.863460    2.863460   16.136561    ( 0.0000,  0.0000,  0.0000)
  32 Al     5.727887    2.863460   16.136561    ( 0.0000,  0.0000,  0.0000)
  33 Al     0.000000    5.727363   16.134910    ( 0.0000,  0.0000,  0.0000)
  34 Al     2.863460    5.727887   16.136561    ( 0.0000,  0.0000,  0.0000)
  35 Al     5.727887    5.727887   16.136561    ( 0.0000,  0.0000,  0.0000)

Unit cell:
           periodic     x           y           z      points  spacing
  1. axis:    yes    8.591347    0.000000    0.000000    52     0.1652
  2. axis:    yes    0.000000    8.591347    0.000000    52     0.1652
  3. axis:    no     0.000000    0.000000   26.075000   164     0.1590

  Lengths:   8.591347   8.591347  26.075000
  Angles:   90.000000  90.000000  90.000000

Effective grid spacing dv^(1/3) = 0.1631

     iter     time        total  log10-change:
                         energy  eigst   dens
iter:   1 23:32:48  -997.881810  -1.77
iter:   2 23:34:55  -997.859843  -1.72  -2.15
iter:   3 23:37:03  -997.856096c -2.71  -2.54
iter:   4 23:39:12  -997.855919c -2.29  -2.80
Writing to output.gpw (mode='')

iter:   5 23:41:19  -997.856203c -2.52  -2.93
iter:   6 23:43:31  -997.855366c -3.36  -2.96
iter:   7 23:45:47  -997.855298c -3.41  -3.17
iter:   8 23:47:54  -997.855363c -4.07  -3.54
iter:   9 23:50:04  -997.855274c -4.02  -3.52
Writing to output.gpw (mode='')

iter:  10 23:52:23  -997.855286c -4.02  -3.47
iter:  11 23:54:29  -997.855256c -4.85  -3.76
iter:  12 23:56:35  -997.855249c -4.74  -4.00c
iter:  13 23:58:40  -997.855258c -5.28  -3.89
iter:  14 00:00:43  -997.855268c -4.91  -3.89
Writing to output.gpw (mode='')

iter:  15 00:02:46  -997.855270c -5.23  -4.13c
iter:  16 00:04:48  -997.855257c -5.38  -4.25c
iter:  17 00:06:48  -997.855266c -5.85  -4.41c
iter:  18 00:08:51  -997.855274c -5.51  -4.63c
iter:  19 00:10:58  -997.855270c -6.42  -4.61c
Writing to output.gpw (mode='')

iter:  20 00:13:10  -997.855264c -5.85  -4.67c
iter:  21 00:15:14  -997.855272c -6.27  -4.69c
iter:  22 00:17:18  -997.855283c -5.95  -4.76c
iter:  23 00:19:23  -997.855270c -6.29  -4.39c
iter:  24 00:21:27  -997.855265c -6.24  -4.97c
Writing to output.gpw (mode='')

iter:  25 00:23:34  -997.855266c -7.09  -5.05c
iter:  26 00:25:41  -997.855272c -7.18  -5.17c
iter:  27 00:27:47  -997.855269c -7.63c -5.17c

Converged after 27 iterations.

Dipole moment: (-6.842008, -6.842008, 0.004668) |e|*Ang

Energy contributions relative to reference atoms: (reference = -237723.237536)

Kinetic:        +55.238107
Potential:      -11.148860
External:        +0.000000
XC:            -1041.907752
Entropy (-ST):   -0.141318
Local:           +0.033894
--------------------------
Free energy:   -997.925929
Extrapolated:  -997.855269

Dipole-layer corrected work functions: 4.532607, 4.521163 eV

Showing only first 2 kpts
 Kpt  Band  Eigenvalues  Occupancy
  0    52     -4.92782    1.99934
  0    53     -4.92763    1.99934
  0    54     -4.83418    1.99572
  0    55     -4.83405    1.99571

  1    52     -4.60940    1.67784
  1    53     -4.53476    1.07860
  1    54     -4.44595    0.33080
  1    55     -4.31063    0.02612


Fermi level: -4.52689

No gap
Writing to output.gpw (mode='')


Forces in eV/Ang:
  0 Al    0.00174    0.00174   -0.20739
  1 Al   -0.00000   -0.00195   -0.20282
  2 Al   -0.00174    0.00174   -0.20739
  3 Al   -0.00195    0.00000   -0.20282
  4 Al    0.00000    0.00000   -0.21324
  5 Al    0.00195    0.00000   -0.20282
  6 Al    0.00174   -0.00174   -0.20739
  7 Al   -0.00000    0.00195   -0.20282
  8 Al   -0.00174   -0.00174   -0.20739
  9 Al    0.00000    0.00000    0.01326
 10 Al   -0.00272    0.00000    0.01829
 11 Al    0.00272    0.00000    0.01829
 12 Al    0.00000   -0.00272    0.01829
 13 Al    0.00061    0.00061    0.01352
 14 Al   -0.00061    0.00061    0.01352
 15 Al    0.00000    0.00272    0.01829
 16 Al    0.00061   -0.00061    0.01352
 17 Al   -0.00061   -0.00061    0.01352
 18 Al   -0.00069   -0.00069    0.10028
 19 Al   -0.00000    0.00117    0.10375
 20 Al    0.00069   -0.00069    0.10028
 21 Al    0.00117    0.00000    0.10375
 22 Al    0.00000    0.00000    0.10195
 23 Al   -0.00117    0.00000    0.10375
 24 Al   -0.00069    0.00069    0.10028
 25 Al   -0.00000   -0.00117    0.10375
 26 Al    0.00069    0.00069    0.10028
 27 Al    0.00000    0.00000    0.08358
 28 Al   -0.00340    0.00000    0.08844
 29 Al    0.00340    0.00000    0.08844
 30 Al    0.00000   -0.00340    0.08844
 31 Al    0.00294    0.00294    0.08610
 32 Al   -0.00294    0.00294    0.08610
 33 Al    0.00000    0.00340    0.08844
 34 Al    0.00294   -0.00294    0.08610
 35 Al   -0.00294   -0.00294    0.08610

System changes: positions 

Initializing position-dependent things.

Density initialized from wave functions
      .--------------------.  
     /|                    |  
    / |                    |  
   /  |                    |  
  /   |                    |  
 *    |                    |  
 |    |                    |  
 |    |                    |  
 |    |                    |  
 |    |                    |  
 |    |                    |  
 |    |                    |  
 |    |                    |  
 |    |                    |  
 |  Al|    Al     Al       |  
 |    |                    |  
 | Al |  AAl    AAl    Al  |  
 Al   |AAl    AAl    Al    |  
 |    |                    |  
 |  AAl    AAl    AAl      |  
 |    |                    |  
 | Al |  AAl    AAl    Al  |  
 Al   |AAl    AAl    Al    |  
 |    |                    |  
 |   Al     Al     Al      |  
 |    |                    |  
 |    |                    |  
 |    |                    |  
 |    |                    |  
 |    |                    |  
 |    |                    |  
 |    |                    |  
 |    .--------------------.  
 |   /                    /   
 |  /                    /    
 | /                    /     
 |/                    /      
 *--------------------*       

Positions:
   0 Al     1.431891    1.431891   10.000000    ( 0.0000,  0.0000,  0.0000)
   1 Al     4.295674    1.431891   10.000000    ( 0.0000,  0.0000,  0.0000)
   2 Al     7.159456    1.431891   10.000000    ( 0.0000,  0.0000,  0.0000)
   3 Al     1.431891    4.295674   10.000000    ( 0.0000,  0.0000,  0.0000)
   4 Al     4.295674    4.295674   10.000000    ( 0.0000,  0.0000,  0.0000)
   5 Al     7.159456    4.295674   10.000000    ( 0.0000,  0.0000,  0.0000)
   6 Al     1.431891    7.159456   10.000000    ( 0.0000,  0.0000,  0.0000)
   7 Al     4.295674    7.159456   10.000000    ( 0.0000,  0.0000,  0.0000)
   8 Al     7.159456    7.159456   10.000000    ( 0.0000,  0.0000,  0.0000)
   9 Al     0.000000    0.000000   12.025000    ( 0.0000,  0.0000,  0.0000)
  10 Al     2.863782    0.000000   12.025000    ( 0.0000,  0.0000,  0.0000)
  11 Al     5.727565    0.000000   12.025000    ( 0.0000,  0.0000,  0.0000)
  12 Al     0.000000    2.863782   12.025000    ( 0.0000,  0.0000,  0.0000)
  13 Al     2.863782    2.863782   12.025000    ( 0.0000,  0.0000,  0.0000)
  14 Al     5.727565    2.863782   12.025000    ( 0.0000,  0.0000,  0.0000)
  15 Al     0.000000    5.727565   12.025000    ( 0.0000,  0.0000,  0.0000)
  16 Al     2.863782    5.727565   12.025000    ( 0.0000,  0.0000,  0.0000)
  17 Al     5.727565    5.727565   12.025000    ( 0.0000,  0.0000,  0.0000)
  18 Al     1.431551    1.431551   14.077646    ( 0.0000,  0.0000,  0.0000)
  19 Al     4.295674    1.432705   14.076541    ( 0.0000,  0.0000,  0.0000)
  20 Al     7.159797    1.431551   14.077646    ( 0.0000,  0.0000,  0.0000)
  21 Al     1.432705    4.295674   14.076541    ( 0.0000,  0.0000,  0.0000)
  22 Al     4.295674    4.295674   14.077866    ( 0.0000,  0.0000,  0.0000)
  23 Al     7.158643    4.295674   14.076541    ( 0.0000,  0.0000,  0.0000)
  24 Al     1.431551    7.159797   14.077646    ( 0.0000,  0.0000,  0.0000)
  25 Al     4.295674    7.158643   14.076541    ( 0.0000,  0.0000,  0.0000)
  26 Al     7.159797    7.159797   14.077646    ( 0.0000,  0.0000,  0.0000)
  27 Al    -0.000000    0.000000   16.148104    ( 0.0000,  0.0000,  0.0000)
  28 Al     2.863972   -0.000000   16.144542    ( 0.0000,  0.0000,  0.0000)
  29 Al     5.727376    0.000000   16.144542    ( 0.0000,  0.0000,  0.0000)
  30 Al    -0.000000    2.863972   16.144542    ( 0.0000,  0.0000,  0.0000)
  31 Al     2.863453    2.863453   16.146378    ( 0.0000,  0.0000,  0.0000)
  32 Al     5.727894    2.863453   16.146378    ( 0.0000,  0.0000,  0.0000)
  33 Al     0.000000    5.727376   16.144542    ( 0.0000,  0.0000,  0.0000)
  34 Al     2.863453    5.727894   16.146378    ( 0.0000,  0.0000,  0.0000)
  35 Al     5.727894    5.727894   16.146378    ( 0.0000,  0.0000,  0.0000)

Unit cell:
           periodic     x           y           z      points  spacing
  1. axis:    yes    8.591347    0.000000    0.000000    52     0.1652
  2. axis:    yes    0.000000    8.591347    0.000000    52     0.1652
  3. axis:    no     0.000000    0.000000   26.075000   164     0.1590

  Lengths:   8.591347   8.591347  26.075000
  Angles:   90.000000  90.000000  90.000000

Effective grid spacing dv^(1/3) = 0.1631

     iter     time        total  log10-change:
                         energy  eigst   dens
iter:   1 00:30:12  -997.891819  -1.77
iter:   2 00:32:20  -997.871020  -1.76  -2.16
iter:   3 00:34:25  -997.867520c -2.74  -2.55
iter:   4 00:36:29  -997.867333c -2.26  -2.79
Writing to output.gpw (mode='')

iter:   5 00:38:33  -997.867527c -2.55  -2.94
iter:   6 00:40:45  -997.866808c -3.37  -2.98
iter:   7 00:42:52  -997.866705c -3.39  -3.15
iter:   8 00:44:58  -997.866770c -4.01  -3.53
iter:   9 00:47:08  -997.866679c -4.00  -3.51
Writing to output.gpw (mode='')

iter:  10 00:49:12  -997.866673c -4.08  -3.48
iter:  11 00:51:30  -997.866658c -4.86  -3.80
iter:  12 00:53:38  -997.866658c -5.05  -4.01c
iter:  13 00:55:54  -997.866678c -4.98  -4.10c
iter:  14 00:58:04  -997.866674c -5.56  -4.24c
Writing to output.gpw (mode='')

iter:  15 01:00:13  -997.866656c -5.39  -4.27c
iter:  16 01:02:29  -997.866675c -5.59  -4.34c
iter:  17 01:04:38  -997.866675c -6.28  -4.66c
iter:  18 01:06:36  -997.866673c -6.66  -4.65c
iter:  19 01:08:35  -997.866674c -6.57  -4.72c
Writing to output.gpw (mode='')

iter:  20 01:10:41  -997.866675c -6.52  -4.74c
iter:  21 01:12:54  -997.866675c -6.74  -4.73c
iter:  22 01:15:03  -997.866668c -6.42  -4.73c
iter:  23 01:17:07  -997.866671c -7.27  -4.78c
iter:  24 01:19:12  -997.866678c -6.31  -4.86c
Writing to output.gpw (mode='')

iter:  25 01:21:21  -997.866675c -7.40c -4.69c

Converged after 25 iterations.

Dipole moment: (-6.841961, -6.841961, 0.005245) |e|*Ang

Energy contributions relative to reference atoms: (reference = -237723.237536)

Kinetic:        +53.976638
Potential:      -10.240056
External:        +0.000000
XC:            -1041.568226
Entropy (-ST):   -0.140698
Local:           +0.035318
--------------------------
Free energy:   -997.937023
Extrapolated:  -997.866675

Dipole-layer corrected work functions: 4.529123, 4.516264 eV

Showing only first 2 kpts
 Kpt  Band  Eigenvalues  Occupancy
  0    52     -4.92471    1.99936
  0    53     -4.92447    1.99935
  0    54     -4.83065    1.99578
  0    55     -4.83046    1.99576

  1    52     -4.60579    1.68097
  1    53     -4.53123    1.08518
  1    54     -4.43220    0.28133
  1    55     -4.30934    0.02766


Fermi level: -4.52269

No gap

Forces in eV/Ang:
  0 Al    0.00174    0.00174   -0.20637
  1 Al    0.00000   -0.00195   -0.20183
  2 Al   -0.00174    0.00174   -0.20637
  3 Al   -0.00195    0.00000   -0.20183
  4 Al    0.00000    0.00000   -0.21220
  5 Al    0.00195    0.00000   -0.20183
  6 Al    0.00174   -0.00174   -0.20637
  7 Al    0.00000    0.00195   -0.20183
  8 Al   -0.00174   -0.00174   -0.20637
  9 Al    0.00000    0.00000    0.02742
 10 Al   -0.00272    0.00000    0.03259
 11 Al    0.00272    0.00000    0.03259
 12 Al    0.00000   -0.00272    0.03259
 13 Al    0.00062    0.00062    0.02771
 14 Al   -0.00062    0.00062    0.02771
 15 Al    0.00000    0.00272    0.03259
 16 Al    0.00062   -0.00062    0.02771
 17 Al   -0.00062   -0.00062    0.02771
 18 Al   -0.00042   -0.00042    0.10071
 19 Al   -0.00000    0.00054    0.10570
 20 Al    0.00042   -0.00042    0.10071
 21 Al    0.00054    0.00000    0.10570
 22 Al    0.00000    0.00000    0.10249
 23 Al   -0.00054    0.00000    0.10570
 24 Al   -0.00042    0.00042    0.10071
 25 Al   -0.00000   -0.00054    0.10570
[...]
           periodic     x           y           z      points  spacing
  1. axis:    yes    8.591347    0.000000    0.000000    52     0.1652
  2. axis:    yes    0.000000    8.591347    0.000000    52     0.1652
  3. axis:    no     0.000000    0.000000   26.075000   164     0.1590

  Lengths:   8.591347   8.591347  26.075000
  Angles:   90.000000  90.000000  90.000000

Effective grid spacing dv^(1/3) = 0.1631

     iter     time        total  log10-change:
                         energy  eigst   dens
iter:   1 07:51:11  -997.927316  -1.82
iter:   2 07:53:13  -997.917837  -2.35  -2.32
iter:   3 07:55:24  -997.915189c -2.92  -2.59
iter:   4 07:57:24  -997.914246c -1.96  -2.67
Writing to output.gpw (mode='')

iter:   5 07:59:25  -997.914148c -2.91  -2.92
iter:   6 08:01:28  -997.915820c -2.55  -3.15
iter:   7 08:03:27  -997.913620c -2.87  -2.74
iter:   8 08:05:34  -997.913683c -2.96  -3.44
iter:   9 08:07:43  -997.913732c -4.53  -3.47
Writing to output.gpw (mode='')

iter:  10 08:09:46  -997.913765c -4.71  -3.64
iter:  11 08:11:56  -997.913730c -4.62  -3.61
iter:  12 08:14:00  -997.913717c -4.25  -3.84
iter:  13 08:16:13  -997.913725c -5.32  -4.00c
iter:  14 08:18:20  -997.913750c -5.08  -4.03c
Writing to output.gpw (mode='')

iter:  15 08:20:30  -997.913736c -4.17  -3.82
iter:  16 08:22:42  -997.913737c -4.98  -3.62
iter:  17 08:24:40  -997.913734c -4.24  -3.61
iter:  18 08:26:45  -997.913735c -4.95  -4.47c
iter:  19 08:28:55  -997.913731c -5.98  -4.55c
Writing to output.gpw (mode='')

iter:  20 08:30:59  -997.913730c -6.50  -4.65c
iter:  21 08:33:22  -997.913730c -6.74  -4.66c
iter:  22 08:35:31  -997.913730c -6.69  -4.79c
iter:  23 08:37:35  -997.913730c -7.07  -5.03c
iter:  24 08:39:52  -997.913730c -7.26  -5.05c
Writing to output.gpw (mode='')

iter:  25 08:42:04  -997.913730c -7.15  -5.08c
iter:  26 08:44:12  -997.913730c -7.49c -5.17c

Converged after 26 iterations.

Dipole moment: (-6.841626, -6.841626, 0.009938) |e|*Ang

Energy contributions relative to reference atoms: (reference = -237723.237536)

Kinetic:        +43.968390
Potential:       -3.022795
External:        +0.000000
XC:            -1038.837437
Entropy (-ST):   -0.141729
Local:           +0.048976
--------------------------
Free energy:   -997.984595
Extrapolated:  -997.913730

Dipole-layer corrected work functions: 4.511678, 4.487313 eV

Showing only first 2 kpts
 Kpt  Band  Eigenvalues  Occupancy
  0    52     -4.90374    1.99938
  0    53     -4.90349    1.99938
  0    54     -4.79551    1.99465
  0    55     -4.79527    1.99462

  1    52     -4.57014    1.60845
  1    53     -4.51757    1.17880
  1    54     -4.32041    0.05415
  1    55     -4.29863    0.03537


Fermi level: -4.49950

No gap
Writing to output.gpw (mode='')


Forces in eV/Ang:
  0 Al    0.00184    0.00184   -0.19278
  1 Al    0.00000   -0.00205   -0.18825
  2 Al   -0.00184    0.00184   -0.19278
  3 Al   -0.00205    0.00000   -0.18825
  4 Al    0.00000    0.00000   -0.19860
  5 Al    0.00205    0.00000   -0.18825
  6 Al    0.00184   -0.00184   -0.19278
  7 Al    0.00000    0.00205   -0.18825
  8 Al   -0.00184   -0.00184   -0.19278
  9 Al    0.00000    0.00000    0.16140
 10 Al   -0.00217    0.00000    0.16737
 11 Al    0.00217    0.00000    0.16737
 12 Al    0.00000   -0.00217    0.16737
 13 Al    0.00058    0.00058    0.16216
 14 Al   -0.00058    0.00058    0.16216
 15 Al    0.00000    0.00217    0.16737
 16 Al    0.00058   -0.00058    0.16216
 17 Al   -0.00058   -0.00058    0.16216
 18 Al    0.00253    0.00253    0.05165
 19 Al    0.00000   -0.00532    0.05854
 20 Al   -0.00253    0.00253    0.05165
 21 Al   -0.00532    0.00000    0.05854
 22 Al    0.00000    0.00000    0.04844
 23 Al    0.00532    0.00000    0.05854
 24 Al    0.00253   -0.00253    0.05165
 25 Al    0.00000    0.00532    0.05854
 26 Al   -0.00253   -0.00253    0.05165
 27 Al    0.00000    0.00000   -0.02840
 28 Al    0.00108    0.00000   -0.02804
 29 Al   -0.00108    0.00000   -0.02804
 30 Al    0.00000    0.00108   -0.02804
 31 Al    0.00028    0.00028   -0.02893
 32 Al   -0.00028    0.00028   -0.02893
 33 Al    0.00000   -0.00108   -0.02804
 34 Al    0.00028   -0.00028   -0.02893
 35 Al   -0.00028   -0.00028   -0.02893

System changes: positions 

Initializing position-dependent things.

Density initialized from wave functions
      .--------------------.  
     /|                    |  
    / |                    |  
   /  |                    |  
  /   |                    |  
 *    |                    |  
 |    |                    |  
 |    |                    |  
 |    |                    |  
 |    |                    |  
 |    |                    |  
 |    |                    |  
 |    |                    |  
 |    |                    |  
 |  Al|    Al     Al       |  
 | Al |  AAl    AAl    Al  |  
 |    |                    |  
 Al   |AAl    AAl    Al    |  
 |    |                    |  
 |  AAl    AAl    AAl      |  
 |    |                    |  
 | Al |  AAl    AAl    Al  |  
 Al   |AAl    AAl    Al    |  
 |    |                    |  
 |   Al     Al     Al      |  
 |    |                    |  
 |    |                    |  
 |    |                    |  
 |    |                    |  
 |    |                    |  
 |    |                    |  
 |    |                    |  
 |    .--------------------.  
 |   /                    /   
 |  /                    /    
 | /                    /     
 |/                    /      
 *--------------------*       

Positions:
   0 Al     1.431891    1.431891   10.000000    ( 0.0000,  0.0000,  0.0000)
   1 Al     4.295674    1.431891   10.000000    ( 0.0000,  0.0000,  0.0000)
   2 Al     7.159456    1.431891   10.000000    ( 0.0000,  0.0000,  0.0000)
   3 Al     1.431891    4.295674   10.000000    ( 0.0000,  0.0000,  0.0000)
   4 Al     4.295674    4.295674   10.000000    ( 0.0000,  0.0000,  0.0000)
   5 Al     7.159456    4.295674   10.000000    ( 0.0000,  0.0000,  0.0000)
   6 Al     1.431891    7.159456   10.000000    ( 0.0000,  0.0000,  0.0000)
   7 Al     4.295674    7.159456   10.000000    ( 0.0000,  0.0000,  0.0000)
   8 Al     7.159456    7.159456   10.000000    ( 0.0000,  0.0000,  0.0000)
   9 Al     0.000000    0.000000   12.025000    ( 0.0000,  0.0000,  0.0000)
  10 Al     2.863782    0.000000   12.025000    ( 0.0000,  0.0000,  0.0000)
  11 Al     5.727565    0.000000   12.025000    ( 0.0000,  0.0000,  0.0000)
  12 Al     0.000000    2.863782   12.025000    ( 0.0000,  0.0000,  0.0000)
  13 Al     2.863782    2.863782   12.025000    ( 0.0000,  0.0000,  0.0000)
  14 Al     5.727565    2.863782   12.025000    ( 0.0000,  0.0000,  0.0000)
  15 Al     0.000000    5.727565   12.025000    ( 0.0000,  0.0000,  0.0000)
  16 Al     2.863782    5.727565   12.025000    ( 0.0000,  0.0000,  0.0000)
  17 Al     5.727565    5.727565   12.025000    ( 0.0000,  0.0000,  0.0000)
  18 Al     1.431578    1.431578   14.131590    ( 0.0000,  0.0000,  0.0000)
  19 Al     4.295674    1.432861   14.131320    ( 0.0000,  0.0000,  0.0000)
  20 Al     7.159769    1.431578   14.131590    ( 0.0000,  0.0000,  0.0000)
  21 Al     1.432861    4.295674   14.131320    ( 0.0000,  0.0000,  0.0000)
  22 Al     4.295674    4.295674   14.131716    ( 0.0000,  0.0000,  0.0000)
  23 Al     7.158486    4.295674   14.131320    ( 0.0000,  0.0000,  0.0000)
  24 Al     1.431578    7.159769   14.131590    ( 0.0000,  0.0000,  0.0000)
  25 Al     4.295674    7.158486   14.131320    ( 0.0000,  0.0000,  0.0000)
  26 Al     7.159769    7.159769   14.131590    ( 0.0000,  0.0000,  0.0000)
  27 Al    -0.000000    0.000000   16.234377    ( 0.0000,  0.0000,  0.0000)
  28 Al     2.864407   -0.000000   16.230561    ( 0.0000,  0.0000,  0.0000)
  29 Al     5.726941   -0.000000   16.230561    ( 0.0000,  0.0000,  0.0000)
  30 Al    -0.000000    2.864407   16.230561    ( 0.0000,  0.0000,  0.0000)
  31 Al     2.863129    2.863129   16.232312    ( 0.0000,  0.0000,  0.0000)
  32 Al     5.728219    2.863129   16.232312    ( 0.0000,  0.0000,  0.0000)
  33 Al     0.000000    5.726941   16.230561    ( 0.0000,  0.0000,  0.0000)
  34 Al     2.863129    5.728219   16.232312    ( 0.0000,  0.0000,  0.0000)
  35 Al     5.728219    5.728219   16.232312    ( 0.0000,  0.0000,  0.0000)

Unit cell:
           periodic     x           y           z      points  spacing
  1. axis:    yes    8.591347    0.000000    0.000000    52     0.1652
  2. axis:    yes    0.000000    8.591347    0.000000    52     0.1652
  3. axis:    no     0.000000    0.000000   26.075000   164     0.1590

  Lengths:   8.591347   8.591347  26.075000
  Angles:   90.000000  90.000000  90.000000

Effective grid spacing dv^(1/3) = 0.1631

     iter     time        total  log10-change:
                         energy  eigst   dens
iter:   1 08:46:44  -997.919530  -2.14
iter:   2 08:48:46  -997.916579  -2.96  -2.53
iter:   3 08:50:48  -997.914906c -2.98  -2.68
iter:   4 08:52:59  -997.914685c -2.23  -2.85
Writing to output.gpw (mode='')

iter:   5 08:55:12  -997.914775c -3.08  -3.06
iter:   6 08:57:19  -997.915967c -2.61  -3.22
iter:   7 08:59:32  -997.914387c -3.19  -2.81
iter:   8 09:01:33  -997.914407c -3.76  -3.37
iter:   9 09:03:39  -997.914412c -3.92  -3.44
Writing to output.gpw (mode='')

iter:  10 09:05:46  -997.914400c -3.83  -3.59
iter:  11 09:07:55  -997.914426c -4.60  -3.81
iter:  12 09:10:05  -997.914420c -5.09  -3.91
iter:  13 09:12:21  -997.914409c -4.64  -4.05c
iter:  14 09:14:32  -997.914410c -5.17  -4.24c
Writing to output.gpw (mode='')

iter:  15 09:16:43  -997.914410c -5.34  -4.21c
iter:  16 09:19:03  -997.914415c -4.71  -4.16c
iter:  17 09:21:12  -997.914417c -5.34  -3.74
iter:  18 09:23:20  -997.914411c -5.35  -3.71
iter:  19 09:25:24  -997.914418c -4.80  -3.92
Writing to output.gpw (mode='')

iter:  20 09:27:34  -997.914417c -6.16  -4.47c
iter:  21 09:29:37  -997.914413c -5.75  -4.64c
iter:  22 09:31:55  -997.914414c -6.85  -4.32c
iter:  23 09:34:10  -997.914417c -5.80  -4.38c
iter:  24 09:36:21  -997.914413c -5.76  -4.76c
Writing to output.gpw (mode='')

iter:  25 09:38:35  -997.914417c -6.16  -4.40c
iter:  26 09:40:40  -997.914417c -6.12  -4.84c
iter:  27 09:42:43  -997.914416c -7.21  -4.91c
iter:  28 09:44:58  -997.914416c -7.75c -5.07c

Converged after 28 iterations.

Dipole moment: (-6.841573, -6.841573, 0.009951) |e|*Ang

Energy contributions relative to reference atoms: (reference = -237723.237536)

Kinetic:        +43.140228
Potential:       -2.424441
External:        +0.000000
XC:            -1038.608858
Entropy (-ST):   -0.142237
Local:           +0.049774
--------------------------
Free energy:   -997.985535
Extrapolated:  -997.914416

Dipole-layer corrected work functions: 4.510358, 4.485962 eV

Showing only first 2 kpts
 Kpt  Band  Eigenvalues  Occupancy
  0    52     -4.90485    1.99941
  0    53     -4.90469    1.99941
  0    54     -4.79147    1.99435
  0    55     -4.79134    1.99433

  1    52     -4.56610    1.59111
  1    53     -4.51836    1.19929
  1    54     -4.31100    0.04626
  1    55     -4.30006    0.03734


Fermi level: -4.49816

No gap
Writing to output.gpw (mode='')


Forces in eV/Ang:
  0 Al    0.00187    0.00187   -0.19092
  1 Al    0.00000   -0.00207   -0.18630
  2 Al   -0.00187    0.00187   -0.19092
  3 Al   -0.00207    0.00000   -0.18630
  4 Al    0.00000    0.00000   -0.19678
  5 Al    0.00207    0.00000   -0.18630
  6 Al    0.00187   -0.00187   -0.19092
  7 Al    0.00000    0.00207   -0.18630
  8 Al   -0.00187   -0.00187   -0.19092
  9 Al    0.00000    0.00000    0.17729
 10 Al   -0.00198    0.00000    0.18306
 11 Al    0.00198    0.00000    0.18306
 12 Al    0.00000   -0.00198    0.18306
 13 Al    0.00056    0.00056    0.17800
 14 Al   -0.00056    0.00056    0.17800
 15 Al    0.00000    0.00198    0.18306
 16 Al    0.00056   -0.00056    0.17800
 17 Al   -0.00056   -0.00056    0.17800
 18 Al    0.00212    0.00212    0.03687
 19 Al    0.00000   -0.00525    0.04109
 20 Al   -0.00212    0.00212    0.03687
 21 Al   -0.00525    0.00000    0.04109
 22 Al    0.00000    0.00000    0.03401
 23 Al    0.00525    0.00000    0.04109
 24 Al    0.00212   -0.00212    0.03687
 25 Al    0.00000    0.00525    0.04109
 26 Al   -0.00212   -0.00212    0.03687
 27 Al    0.00000    0.00000   -0.02850
 28 Al   -0.00020    0.00000   -0.03120
 29 Al    0.00020    0.00000   -0.03120
 30 Al    0.00000   -0.00020   -0.03120
 31 Al    0.00070    0.00070   -0.03020
 32 Al   -0.00070    0.00070   -0.03020
 33 Al    0.00000    0.00020   -0.03120
 34 Al    0.00070   -0.00070   -0.03020
 35 Al   -0.00070   -0.00070   -0.03020

Timing:                                      incl.     excl.
-------------------------------------------------------------------
Density initialized from wave functions:    24.442    12.525   0.0% |
 Symmetrize density:                        11.917    11.917   0.0% |
Forces:                                    101.166   101.166   0.2% |
Hamiltonian:                              1420.368     0.003   0.0% |
 Atomic:                                     5.287     1.524   0.0% |
  XC Correction:                             3.763     3.763   0.0% |
 Calculate atomic Hamiltonians:              3.510     3.510   0.0% |
 Communicate:                                6.823     6.823   0.0% |
 Hartree integrate/restrict:                 1.788     1.788   0.0% |
 Initialize Hamiltonian:                     0.000     0.000   0.0% |
 Poisson:                                   25.900     9.465   0.0% |
  Communicate from 1D:                       2.831     2.831   0.0% |
  Communicate from 2D:                       3.737     3.737   0.0% |
  Communicate to 1D:                         1.794     1.794   0.0% |
  Communicate to 2D:                         3.082     3.082   0.0% |
  FFT 1D:                                    2.692     2.692   0.0% |
  FFT 2D:                                    2.299     2.299   0.0% |
 XC 3D grid:                              1376.935    62.357   0.1% |
  VdW-DF integral:                        1314.578     2.743   0.0% |
   Convolution:                             71.107    71.107   0.1% |
   FFT:                                     14.528    14.528   0.0% |
   gather:                                1061.671  1061.671   1.7% ||
   hmm1:                                    13.319    13.319   0.0% |
   hmm2:                                    18.936    18.936   0.0% |
   iFFT:                                    13.661    13.661   0.0% |
   potential:                              105.057     0.824   0.0% |
    collect:                                16.667    16.667   0.0% |
    p1:                                     37.903    37.903   0.1% |
    p2:                                     24.329    24.329   0.0% |
    sum:                                    25.334    25.334   0.0% |
   splines:                                 13.556    13.556   0.0% |
 vbar:                                       0.122     0.122   0.0% |
LCAO initialization:                         5.018     0.097   0.0% |
 LCAO eigensolver:                           1.522     0.001   0.0% |
  Calculate projections:                     0.000     0.000   0.0% |
  DenseAtomicCorrection:                     0.000     0.000   0.0% |
  Distribute overlap matrix:                 1.399     1.399   0.0% |
  Orbital Layouts:                           0.119     0.119   0.0% |
  Potential matrix:                          0.002     0.002   0.0% |
  Sum over cells:                            0.002     0.002   0.0% |
 LCAO to grid:                               2.566     2.566   0.0% |
 Set positions (LCAO WFS):                   0.832     0.487   0.0% |
  Basic WFS set positions:                   0.045     0.045   0.0% |
  Basis functions set positions:             0.001     0.001   0.0% |
  P tci:                                     0.000     0.000   0.0% |
  ST tci:                                    0.116     0.116   0.0% |
  mktci:                                     0.183     0.183   0.0% |
Redistribute:                                0.026     0.026   0.0% |
SCF-cycle:                               61943.876   997.182   1.6% ||
 Davidson:                               21039.900  9960.098  15.6% |-----|
  Apply hamiltonian:                       910.123   910.123   1.4% ||
  Subspace diag:                          2144.825     0.164   0.0% |
   calc_h_matrix:                         1278.359   389.814   0.6% |
    Apply hamiltonian:                     888.544   888.544   1.4% ||
   diagonalize:                            153.068   153.068   0.2% |
   rotate_psi:                             713.234   713.234   1.1% |
  calc. matrices:                         6469.310  3138.222   4.9% |-|
   Apply hamiltonian:                     3331.087  3331.087   5.2% |-|
  diagonalize:                              36.081    36.081   0.1% |
  rotate_psi:                             1519.463  1519.463   2.4% ||
 Density:                                  602.377     0.018   0.0% |
  Atomic density matrices:                  84.844    84.844   0.1% |
  Mix:                                      85.452    85.452   0.1% |
  Multipole moments:                         1.393     1.393   0.0% |
  Pseudo density:                          430.670    75.495   0.1% |
   Symmetrize density:                     355.175   355.175   0.6% |
 Hamiltonian:                            39253.428     0.142   0.0% |
  Atomic:                                  138.408    30.961   0.0% |
   XC Correction:                          107.447   107.447   0.2% |
  Calculate atomic Hamiltonians:            93.756    93.756   0.1% |
  Communicate:                             194.858   194.858   0.3% |
  Hartree integrate/restrict:               45.483    45.483   0.1% |
  Poisson:                                 703.476   270.979   0.4% |
   Communicate from 1D:                     80.844    80.844   0.1% |
   Communicate from 2D:                     91.555    91.555   0.1% |
   Communicate to 1D:                       45.865    45.865   0.1% |
   Communicate to 2D:                       83.965    83.965   0.1% |
   FFT 1D:                                  70.525    70.525   0.1% |
   FFT 2D:                                  59.743    59.743   0.1% |
  XC 3D grid:                            38073.162  1740.623   2.7% ||
   VdW-DF integral:                      36332.539    76.136   0.1% |
    Convolution:                          1977.157  1977.157   3.1% ||
    FFT:                                   371.520   371.520   0.6% |
    gather:                              29866.355 29866.355  46.9% |------------------|
    hmm1:                                  358.483   358.483   0.6% |
    hmm2:                                  491.314   491.314   0.8% |
    iFFT:                                  364.610   364.610   0.6% |
    potential:                            2826.959    22.596   0.0% |
     collect:                              403.865   403.865   0.6% |
     p1:                                  1056.401  1056.401   1.7% ||
     p2:                                   674.840   674.840   1.1% |
     sum:                                  669.257   669.257   1.1% |
    splines:                                 0.005     0.005   0.0% |
  vbar:                                      4.142     4.142   0.0% |
 Orthonormalize:                            50.989     0.005   0.0% |
  calc_s_matrix:                             5.696     5.696   0.0% |
  inverse-cholesky:                         32.352    32.352   0.1% |
  projections:                               0.001     0.001   0.0% |
  rotate_psi_s:                             12.935    12.935   0.0% |
Set symmetry:                                0.012     0.012   0.0% |
Other:                                     234.985   234.985   0.4% |
-------------------------------------------------------------------
Total:                                             63729.892 100.0%

Memory usage: 1016.54 MiB
Date: Wed Jan 18 09:45:05 2023
